<?xml version="1.0"?>
<VTKFile type="UnstructuredGrid"  version="0.1"  >
<UnstructuredGrid>
<Piece  NumberOfPoints="1969" NumberOfCells="6911">
<Points>
<DataArray  type="Float64"  NumberOfComponents="3"  format="ascii">0.14 0 -0.09000000000000001  0.21 0 -0.09000000000000001  0.1373099392564523 0.02731264508225796 -0.09000000000000001  0.2059649088846784 0.04096896762338693 -0.09000000000000001  0.14 0 -0.02  0.21 0 -0.02  0.1373099392564523 0.02731264508225796 -0.02  0.2059649088846784 0.04096896762338693 -0.02  0.1915 0 -0.02  0.175 0.0165 -0.02  0.1585 0 -0.02  0.1915 0 -0.006  0.175 0.0165 -0.006  0.1585 0 -0.006  0.18445 0 -0.006  0.175 0.00945 -0.006  0.16555 0 -0.006  0.18445 0 0  0.175 0.00945 0  0.16555 0 0  0.193 0 0  0.175 0.018 0  0.157 0 0  0.193 0 0.006  0.175 0.018 0.006  0.157 0 0.006  0.15 0 0  0.2 0 0  0.1471177920604846 0.02926354830241924 0  0.1961570560806461 0.03901806440322565 0  0.15 0 0.241  0.2 0 0.241  0.1471177920604846 0.02926354830241924 0.241  0.1961570560806461 0.03901806440322565 0.241  0.1373099392564523 -0.02731264508225796 -0.09000000000000001  0.2059649088846784 -0.04096896762338693 -0.09000000000000001  0.2059649088846784 -0.04096896762338693 -0.02  0.1373099392564523 -0.02731264508225796 -0.02  0.175 -0.0165 -0.02  0.175 -0.0165 -0.006  0.175 -0.00945 -0.006  0.175 -0.00945 0  0.175 -0.018 0  0.175 -0.018 0.006  0.1471177920604846 -0.02926354830241924 0  0.1961570560806461 -0.03901806440322565 0  0.1961570560806461 -0.03901806440322565 0.241  0.1471177920604846 -0.02926354830241924 0.241  0.1940147018273702 0.08036352079666885 -0.09000000000000001  0.1293431345515802 0.05357568053111257 -0.09000000000000001  0.1164057457223563 0.07777983262274432 -0.09000000000000001  0.1746086185835345 0.1166697489341165 -0.09000000000000001  0.1940147018273702 0.08036352079666885 -0.02  0.1769229304759114 0.07328387729791469 -0.02  0.1464349059030389 0.06065532402986672 -0.02  0.1293431345515802 0.05357568053111257 -0.02  0.1746086185835345 0.1166697489341165 -0.02  0.1164057457223563 0.07777983262274432 -0.02  0.1553646415554512 0.08221361295032695 -0.02  0.1769229304759114 0.07328387729791469 -0.006  0.1704095797717068 0.07058595909974082 -0.006  0.1529482566072435 0.0633532422280406 -0.006  0.1464349059030389 0.06065532402986672 -0.006  0.1553646415554512 0.08221361295032695 -0.006  0.1580625597536251 0.07570026224612236 -0.006  0.1704095797717068 0.07058595909974082 0  0.1529482566072435 0.0633532422280406 0  0.1580625597536251 0.07570026224612236 0  0.145049086604272 0.0600812988813191 0  0.1547906164069036 0.08359943224909387 0  0.1783087497746783 0.07385790244646231 0  0.1783087497746783 0.07385790244646231 0.006  0.145049086604272 0.0600812988813191 0.006  0.1547906164069036 0.08359943224909387 0.006  0.1847759065022574 0.07653668647301796 0  0.138581929876693 0.05740251485476346 0  0.1247204418453818 0.08333553495294033 0  0.1662939224605091 0.1111140466039204 0  0.1847759065022574 0.07653668647301796 0.241  0.138581929876693 0.05740251485476346 0.241  0.1662939224605091 0.1111140466039204 0.241  0.1247204418453818 0.08333553495294033 0.241  0.1679931948234991 0.05172558837745448 -0.02  0.1679931948234991 0.05172558837745448 -0.006  0.1652952766253253 0.05823893908165905 -0.006  0.1652952766253253 0.05823893908165905 0  0.1685672199720468 0.05033976907868755 0  0.1685672199720468 0.05033976907868755 0.006  0.148492424049175 0.148492424049175 -0.09000000000000001  0.09899494936611666 0.09899494936611665 -0.09000000000000001  0.07777983262274432 0.1164057457223563 -0.09000000000000001  0.1166697489341165 0.1746086185835345 -0.09000000000000001  0.148492424049175 0.148492424049175 -0.02  0.1354109485972239 0.1354109485972238 -0.02  0.1120764248180678 0.1120764248180678 -0.02  0.09899494936611666 0.09899494936611665 -0.02  0.1166697489341165 0.1746086185835345 -0.02  0.07777983262274432 0.1164057457223563 -0.02  0.1120764248180678 0.1354109485972238 -0.02  0.1354109485972239 0.1354109485972238 -0.006  0.1304258457898587 0.1304258457898587 -0.006  0.1170615276254329 0.1170615276254329 -0.006  0.1120764248180678 0.1120764248180678 -0.006  0.1120764248180678 0.1354109485972238 -0.006  0.117061527625433 0.1304258457898587 -0.006  0.1304258457898587 0.1304258457898587 0  0.1170615276254329 0.1170615276254329 0  0.117061527625433 0.1304258457898587 0  0.111015764646288 0.111015764646288 0  0.111015764646288 0.1364716087690037 0  0.1364716087690037 0.1364716087690036 0  0.1364716087690037 0.1364716087690036 0.006  0.111015764646288 0.111015764646288 0.006  0.111015764646288 0.1364716087690037 0.006  0.1414213562373095 0.1414213562373095 0  0.1060660171779821 0.1060660171779821 0  0.08333553495294035 0.1247204418453818 0  0.1111140466039205 0.1662939224605091 0  0.1414213562373095 0.1414213562373095 0.241  0.1060660171779821 0.1060660171779821 0.241  0.1111140466039205 0.1662939224605091 0.241  0.08333553495294035 0.1247204418453818 0.241  0.1354109485972239 0.1120764248180678 -0.02  0.1354109485972239 0.1120764248180678 -0.006  0.1304258457898587 0.1170615276254329 -0.006  0.1304258457898587 0.1170615276254329 0  0.1364716087690037 0.1110157646462879 0  0.1364716087690037 0.1110157646462879 0.006  0.08036352079666886 0.1940147018273702 -0.09000000000000001  0.05357568053111258 0.1293431345515802 -0.09000000000000001  0.02731264508225797 0.1373099392564523 -0.09000000000000001  0.04096896762338696 0.2059649088846784 -0.09000000000000001  0.08036352079666886 0.1940147018273702 -0.02  0.0732838772979147 0.1769229304759114 -0.02  0.06065532402986673 0.1464349059030389 -0.02  0.05357568053111258 0.1293431345515802 -0.02  0.04096896762338696 0.2059649088846784 -0.02  0.02731264508225797 0.1373099392564523 -0.02  0.05172558837745448 0.1679931948234991 -0.02  0.0732838772979147 0.1769229304759114 -0.006  0.07058595909974082 0.1704095797717068 -0.006  0.06335324222804062 0.1529482566072435 -0.006  0.06065532402986673 0.1464349059030389 -0.006  0.05172558837745448 0.1679931948234991 -0.006  0.05823893908165905 0.1652952766253253 -0.006  0.07058595909974082 0.1704095797717068 0  0.06335324222804062 0.1529482566072435 0  0.05823893908165905 0.1652952766253253 0  0.06008129888131911 0.145049086604272 0  0.05033976907868755 0.1685672199720468 0  0.07385790244646233 0.1783087497746783 0  0.07385790244646233 0.1783087497746783 0.006  0.06008129888131911 0.145049086604272 0.006  0.05033976907868755 0.1685672199720468 0.006  0.07653668647301798 0.1847759065022574 0  0.05740251485476347 0.138581929876693 0  0.02926354830241925 0.1471177920604846 0  0.03901806440322567 0.1961570560806461 0  0.07653668647301798 0.1847759065022574 0.241  0.05740251485476347 0.138581929876693 0.241  0.03901806440322567 0.1961570560806461 0.241  0.02926354830241925 0.1471177920604846 0.241  0.08221361295032695 0.1553646415554512 -0.02  0.08221361295032695 0.1553646415554512 -0.006  0.07570026224612236 0.1580625597536251 -0.006  0.07570026224612236 0.1580625597536251 0  0.08359943224909387 0.1547906164069036 0  0.08359943224909387 0.1547906164069036 0.006  1.285879139104721e-17 0.21 -0.09000000000000001  8.572527594031473e-18 0.14 -0.09000000000000001  -0.02731264508225795 0.1373099392564523 -0.09000000000000001  -0.04096896762338691 0.2059649088846784 -0.09000000000000001  1.285879139104721e-17 0.21 -0.02  1.172599310183591e-17 0.1915 -0.02  9.705325883242773e-18 0.1585 -0.02  8.572527594031473e-18 0.14 -0.02  -0.04096896762338691 0.2059649088846784 -0.02  -0.02731264508225795 0.1373099392564523 -0.02  -0.01649999999999999 0.175 -0.02  1.172599310183591e-17 0.1915 -0.006  1.129430510513647e-17 0.18445 -0.006  1.013701387994221e-17 0.16555 -0.006  9.705325883242773e-18 0.1585 -0.006  -0.01649999999999999 0.175 -0.006  -0.00944999999999999 0.175 -0.006  1.129430510513647e-17 0.18445 0  1.013701387994221e-17 0.16555 0  -0.00944999999999999 0.175 0  9.613477373306723e-18 0.157 0  -0.01799999999999999 0.175 0  1.181784161177196e-17 0.193 0  1.181784161177196e-17 0.193 0.006  9.613477373306723e-18 0.157 0.006  -0.01799999999999999 0.175 0.006  1.224646799147353e-17 0.2 0  9.184850993605149e-18 0.15 0  -0.02926354830241923 0.1471177920604846 0  -0.03901806440322564 0.1961570560806461 0  1.224646799147353e-17 0.2 0.241  9.184850993605149e-18 0.15 0.241  -0.03901806440322564 0.1961570560806461 0.241  -0.02926354830241923 0.1471177920604846 0.241  0.01650000000000001 0.175 -0.02  0.01650000000000001 0.175 -0.006  0.00945000000000001 0.175 -0.006  0.00945000000000001 0.175 0  0.01800000000000001 0.175 0  0.01800000000000001 0.175 0.006  -0.08036352079666884 0.1940147018273702 -0.09000000000000001  -0.05357568053111256 0.1293431345515802 -0.09000000000000001  -0.07777983262274431 0.1164057457223563 -0.09000000000000001  -0.1166697489341164 0.1746086185835345 -0.09000000000000001  -0.08036352079666884 0.1940147018273702 -0.02  -0.07328387729791469 0.1769229304759114 -0.02  -0.06065532402986671 0.1464349059030389 -0.02  -0.05357568053111256 0.1293431345515802 -0.02  -0.1166697489341164 0.1746086185835345 -0.02  -0.07777983262274431 0.1164057457223563 -0.02  -0.08221361295032693 0.1553646415554512 -0.02  -0.07328387729791469 0.1769229304759114 -0.006  -0.0705859590997408 0.1704095797717068 -0.006  -0.06335324222804059 0.1529482566072435 -0.006  -0.06065532402986671 0.1464349059030389 -0.006  -0.08221361295032693 0.1553646415554512 -0.006  -0.07570026224612236 0.1580625597536251 -0.006  -0.0705859590997408 0.1704095797717068 0  -0.06335324222804059 0.1529482566072435 0  -0.07570026224612236 0.1580625597536251 0  -0.06008129888131909 0.145049086604272 0  -0.08359943224909386 0.1547906164069036 0  -0.07385790244646231 0.1783087497746783 0  -0.07385790244646231 0.1783087497746783 0.006  -0.06008129888131909 0.145049086604272 0.006  -0.08359943224909386 0.1547906164069036 0.006  -0.07653668647301795 0.1847759065022574 0  -0.05740251485476346 0.138581929876693 0  -0.08333553495294033 0.1247204418453818 0  -0.1111140466039204 0.1662939224605091 0  
[...]
<PointData  Vectors="f_274"> 
<DataArray  type="Float64"  Name="f_274"  NumberOfComponents="3" format="ascii">1.3142903077383709e+01 1.5083918149452716e-01 0.0000000000000000e+00  1.3157217462674845e+01 7.7785605339714431e-02 0.0000000000000000e+00  9.3385112865476234e+00 5.6294370882024949e-02 0.0000000000000000e+00  9.4904953409251007e+00 7.8929609168180884e-02 0.0000000000000000e+00  1.1912178610458961e+01 -5.1047610338629212e-01 0.0000000000000000e+00  1.1889100987339184e+01 -5.9490773129755670e-01 0.0000000000000000e+00  8.6658410951598928e+00 -3.0341845257149053e-01 0.0000000000000000e+00  8.9296144177564933e+00 -2.2224380864344570e-01 0.0000000000000000e+00  1.0998297111795921e+01 -1.0475832309919113e+00 0.0000000000000000e+00  9.6215822861841609e+00 -1.0390844981343181e+00 0.0000000000000000e+00  1.0694154466415048e+01 -1.1662096224587446e+00 0.0000000000000000e+00  7.8023151269077955e+00 -2.6824696880416408e+00 0.0000000000000000e+00  7.4329922365816712e+00 -2.6567938973940293e+00 0.0000000000000000e+00  7.7578205213083296e+00 -2.6942807024375837e+00 0.0000000000000000e+00  5.7510661578342743e+00 -3.7125320858317470e+00 0.0000000000000000e+00  5.7578446273698223e+00 -3.5540578139205818e+00 0.0000000000000000e+00  5.7797905143902133e+00 -3.6899801285468805e+00 0.0000000000000000e+00  -5.1834540524631623e-01 -6.8497002050715565e+00 0.0000000000000000e+00  -3.0375787941728721e-01 -6.4215797932225724e+00 0.0000000000000000e+00  -3.3398919175652247e-01 -6.7253994295483226e+00 0.0000000000000000e+00  -1.1830397453404713e+00 -6.7451672230461170e+00 0.0000000000000000e+00  -1.0667672722791541e+00 -5.9091417583465793e+00 0.0000000000000000e+00  -1.2102645099985876e+00 -6.7557038580225726e+00 0.0000000000000000e+00  -1.0682922383425804e+00 -6.4534074845295128e+00 0.0000000000000000e+00  -9.7420770956366587e-01 -5.7099538495202173e+00 0.0000000000000000e+00  -1.0688022216782422e+00 -6.4643840227323119e+00 0.0000000000000000e+00  -1.1123577456790301e+00 -6.6286563469782953e+00 0.0000000000000000e+00  -1.1230146487841683e+00 -6.6494159636605303e+00 0.0000000000000000e+00  -7.6347252822497158e-01 -4.3729970821777417e+00 0.0000000000000000e+00  -7.3928259778871730e-01 -4.2804752815742635e+00 0.0000000000000000e+00  5.8932017695810550e-15 4.4611878639552350e-16 0.0000000000000000e+00  2.2559739082918451e-15 3.4618336256132264e-15 0.0000000000000000e+00  1.5092996443842327e-15 1.8272139311470760e-15 0.0000000000000000e+00  5.2300063982087168e-15 -4.2133039343752634e-16 0.0000000000000000e+00  1.6256464401600585e+01 1.3483680631660985e-01 0.0000000000000000e+00  1.6529122334796082e+01 1.8148667002955146e-01 0.0000000000000000e+00  1.5564123861339278e+01 -3.2439303797392971e-01 0.0000000000000000e+00  1.5117545699770160e+01 -4.5922568807455616e-01 0.0000000000000000e+00  1.2137806931897092e+01 -1.0874410394996981e+00 0.0000000000000000e+00  8.1385661240009401e+00 -2.7066622487156939e+00 0.0000000000000000e+00  6.1748790775626032e+00 -3.6418931459543864e+00 0.0000000000000000e+00  -4.6558239609465152e-01 -7.0120527378726516e+00 0.0000000000000000e+00  -1.2080990508576641e+00 -7.1032010731046844e+00 0.0000000000000000e+00  -1.1093854227276481e+00 -6.8990604345052988e+00 0.0000000000000000e+00  -1.1426890595661363e+00 -7.3865584221355158e+00 0.0000000000000000e+00  -1.1024715202513053e+00 -7.2437516786901330e+00 0.0000000000000000e+00  1.4840619888215122e-15 2.4252952806872014e-15 0.0000000000000000e+00  3.4690607658699667e-15 1.8925337275895911e-15 0.0000000000000000e+00  5.3372583121318939e+00 1.6450794617844981e-02 0.0000000000000000e+00  5.3222667569455595e+00 4.0312331677111395e-02 0.0000000000000000e+00  1.0497336610585428e+00 -6.6511153615392803e-03 0.0000000000000000e+00  1.0743821434371781e+00 1.8285296209144702e-03 0.0000000000000000e+00  4.8107904824445935e+00 -2.5941082901358037e-01 0.0000000000000000e+00  4.4415597966430260e+00 -4.4413298736737511e-01 0.0000000000000000e+00  4.3168024149929645e+00 -4.9209915230275192e-01 0.0000000000000000e+00  4.8218334545030013e+00 -2.2527835522530948e-01 0.0000000000000000e+00  9.9887428123884936e-01 -3.4215908011839512e-02 0.0000000000000000e+00  9.6412211852233631e-01 -4.6204575549003722e-02 0.0000000000000000e+00  2.8896192075437734e+00 -4.0877444635516913e-01 0.0000000000000000e+00  3.1162191301778277e+00 -1.1109309439741915e+00 0.0000000000000000e+00  2.2654845954573641e+00 -1.5310862029790004e+00 0.0000000000000000e+00  2.2740067003502902e+00 -1.5225119725953393e+00 0.0000000000000000e+00  3.0965691459353120e+00 -1.1159351960391415e+00 0.0000000000000000e+00  2.6866428537431370e+00 -1.0749351978826203e+00 0.0000000000000000e+00  2.1034643199378849e+00 -1.4249673412259043e+00 0.0000000000000000e+00  -3.4010057324674703e-01 -2.8127248828613478e+00 0.0000000000000000e+00  -2.9320750074358187e-01 -2.7708943146562346e+00 0.0000000000000000e+00  -2.2362087942175085e-01 -2.3968520242121087e+00 0.0000000000000000e+00  -6.1288447530944090e-01 -2.7688542159580867e+00 0.0000000000000000e+00  -4.9195223782688663e-01 -1.8930780882339655e+00 0.0000000000000000e+00  -6.0182764489286589e-01 -2.7666062879561131e+00 0.0000000000000000e+00  -5.5454628880942414e-01 -2.6491720875302476e+00 0.0000000000000000e+00  -5.5502308739079143e-01 -2.6543071759005699e+00 0.0000000000000000e+00  -4.5271882231284893e-01 -1.8028337855601835e+00 0.0000000000000000e+00  -5.7803570794517467e-01 -2.7291061507802441e+00 0.0000000000000000e+00  -5.7261332143607779e-01 -2.7193387529780662e+00 0.0000000000000000e+00  -2.6978437618584561e-01 -5.2180974362013710e-01 0.0000000000000000e+00  -2.6586246408378605e-01 -5.0907816975321807e-01 0.0000000000000000e+00  2.9677509942369731e-15 4.3659485076642518e-16 0.0000000000000000e+00  3.9262417618488945e-15 -4.6121705313615791e-16 0.0000000000000000e+00  3.3269751678586500e-15 3.5829656711508107e-15 0.0000000000000000e+00  2.0770388789300941e-15 -7.0363767321525334e-16 0.0000000000000000e+00  5.8989542907221457e+00 -4.9181267842443532e-01 0.0000000000000000e+00  3.5329103408014202e+00 -1.1460542874084552e+00 0.0000000000000000e+00  2.6081169483979534e+00 -1.5430524808430859e+00 0.0000000000000000e+00  -3.2422251536711894e-01 -3.1190685542268790e+00 0.0000000000000000e+00  -6.7702568718638834e-01 -3.4406576001576408e+00 0.0000000000000000e+00  -6.3679559770253047e-01 -3.3630925378385053e+00 0.0000000000000000e+00  -3.2351656894970553e+00 -1.7337600487639201e-02 0.0000000000000000e+00  -3.2179775473996046e+00 -3.0774456798576967e-02 0.0000000000000000e+00  -7.3494037093769489e+00 -5.7280385882045627e-02 0.0000000000000000e+00  -7.4531044716966788e+00 -6.2057432826568712e-02 0.0000000000000000e+00  -2.9492560645806840e+00 1.4499174843167284e-01 0.0000000000000000e+00  -2.7467375969951462e+00 2.5387259656610495e-01 0.0000000000000000e+00  -2.6746111418431924e+00 2.8257404921947854e-01 0.0000000000000000e+00  -2.9479817549090854e+00 1.2520457090920609e-01 0.0000000000000000e+00  -7.0370319412584257e+00 1.7292381159462886e-01 0.0000000000000000e+00  -6.8344875887404086e+00 2.3429433675513167e-01 0.0000000000000000e+00  -4.2412951789846769e+00 3.0313327608886897e-01 0.0000000000000000e+00  -2.0220121704385225e+00 6.4665843709936521e-01 0.0000000000000000e+00  -1.5559017544240346e+00 8.9417116638067173e-01 0.0000000000000000e+00  -1.5662507219942559e+00 8.8819459873227857e-01 0.0000000000000000e+00  -2.0128886080576245e+00 6.4933054397616907e-01 0.0000000000000000e+00  -2.4481385002953817e+00 6.8400070490246412e-01 0.0000000000000000e+00  -1.8638069135314470e+00 9.2816090722975242e-01 0.0000000000000000e+00  -1.2540644231358516e-01 1.6466157365026950e+00 0.0000000000000000e+00  -2.0446749167198741e-01 1.6081700126766534e+00 0.0000000000000000e+00  -1.5599647078799836e-01 1.9710182717843769e+00 0.0000000000000000e+00  2.7961556620985911e-02 1.6353641557205101e+00 0.0000000000000000e+00  1.0461854251270085e-01 2.3755310201906368e+00 0.0000000000000000e+00  2.3091893331540946e-02 1.6303572053318967e+00 0.0000000000000000e+00  -1.0533683047779996e-03 1.5638709693819639e+00 0.0000000000000000e+00  -4.3039675142699375e-04 1.5689322363170481e+00 0.0000000000000000e+00  8.5289690369956872e-02 2.3327702909769652e+00 0.0000000000000000e+00  1.0319608429614399e-02 1.6091378221816079e+00 0.0000000000000000e+00  7.8128788631945164e-03 1.6056407166911095e+00 0.0000000000000000e+00  2.1679374057685144e-01 3.4309759732205776e+00 0.0000000000000000e+00  2.0075724286901966e-01 3.3596597187627930e+00 0.0000000000000000e+00  1.1343616540606643e-15 4.8069385221692103e-16 0.0000000000000000e+00  2.1355981212727736e-15 1.7926940122600763e-15 0.0000000000000000e+00  1.4081190688882961e-15 1.2333634228310851e-15 0.0000000000000000e+00  2.5979100025156688e-15 6.0692060152285969e-16 0.0000000000000000e+00  -1.1912666405022794e+00 2.1292265728458279e-01 0.0000000000000000e+00  -1.5878595302547964e+00 6.0929715197665180e-01 0.0000000000000000e+00  -1.3462846836249831e+00 8.0587156773876145e-01 0.0000000000000000e+00  -1.6880477554702053e-01 1.2592523353382630e+00 0.0000000000000000e+00  -7.6066092432573590e-02 7.8640948438559288e-01 0.0000000000000000e+00  -9.7949187016310529e-02 7.2962215937126396e-01 0.0000000000000000e+00  -1.1269812328769495e+01 -5.4546859597372335e-02 0.0000000000000000e+00  -1.1235573672698834e+01 -1.1187389600620379e-01 0.0000000000000000e+00  -1.4577631467093003e+01 -1.1940443658364132e-01 0.0000000000000000e+00  -1.4804265267846549e+01 -1.4296863153082939e-01 0.0000000000000000e+00  -1.0224359919963300e+01 5.2393365444382900e-01 0.0000000000000000e+00  -9.4872829638833540e+00 9.1191631429224673e-01 0.0000000000000000e+00  -9.2298990380181802e+00 1.0137765493798179e+00 0.0000000000000000e+00  -1.0232184381104720e+01 4.5188642194110107e-01 0.0000000000000000e+00  -1.3966387770928247e+01 3.2596662346958011e-01 0.0000000000000000e+00  -1.3564553897394838e+01 4.4702408316695807e-01 0.0000000000000000e+00  -1.0698256092230666e+01 9.5962373924574185e-01 0.0000000000000000e+00  -6.8467620168104704e+00 2.3123621052104770e+00 0.0000000000000000e+00  -5.1517015177552397e+00 3.1944330252714779e+00 0.0000000000000000e+00  -5.1724466751327469e+00 3.1782530894203123e+00 0.0000000000000000e+00  -6.8074339731493776e+00 2.3239986579005403e+00 0.0000000000000000e+00  -7.2010250126852124e+00 2.3431245726437155e+00 0.0000000000000000e+00  -5.5472036598114567e+00 3.1496962290971053e+00 0.0000000000000000e+00  2.8330572412653268e-02 5.8838641268818703e+00 0.0000000000000000e+00  -1.2254498536748200e-01 5.7841710771744248e+00 0.0000000000000000e+00  -8.7595926635445250e-03 6.1071543059000577e+00 0.0000000000000000e+00  6.1056574963832688e-01 5.8306260957334777e+00 0.0000000000000000e+00  6.2789158528359268e-01 6.3042615277542877e+00 0.0000000000000000e+00  5.8817373728121358e-01 5.8164716753956407e+00 0.0000000000000000e+00  4.9879895602862034e-01 5.5762317057886959e+00 0.0000000000000000e+00  4.9872565141658265e-01 5.5892152626085156e+00 0.0000000000000000e+00  5.4974155128747515e-01 6.1346634582247663e+00 0.0000000000000000e+00  5.4016589867377829e-01 5.7383703000285724e+00 0.0000000000000000e+00  5.3132472378635431e-01 5.7263527374292273e+00 0.0000000000000000e+00  6.1147522196435178e-01 6.8689370493615423e+00 0.0000000000000000e+00  5.7923033990754558e-01 6.7342846927785445e+00 0.0000000000000000e+00  4.3889895191816235e-15 -1.6608274679098435e-15 0.0000000000000000e+00  2.3085487957911327e-15 1.4190081958085671e-15 0.0000000000000000e+00  4.2300831710935069e-15 3.1707128415706983e-15 0.0000000000000000e+00  2.1029618237850385e-15 -4.2449411264510812e-16 0.0000000000000000e+00  -8.0686876836389239e+00 8.9138474423095826e-01 0.0000000000000000e+00  -6.4598123970342245e+00 2.2823369337458237e+00 0.0000000000000000e+00  -5.1023150985184520e+00 3.0475025865995424e+00 0.0000000000000000e+00  -4.1258820730477264e-02 5.4848575203865746e+00 0.0000000000000000e+00  4.8531184255839560e-01 4.9579953212419028e+00 0.0000000000000000e+00  4.0797508989765902e-01 4.7905597183572288e+00 0.0000000000000000e+00  -1.7552079981650877e+01 -1.2762487623891133e-01 0.0000000000000000e+00  -1.7495298285395478e+01 -2.1170814908617316e-01 0.0000000000000000e+00  -1.9552810962209154e+01 -2.1097716389206175e-01 0.0000000000000000e+00  -1.9865733178372441e+01 -2.5365850523659267e-01 0.0000000000000000e+00  -1.5916616563741460e+01 7.7069513407665668e-01 0.0000000000000000e+00  -1.4762819047817754e+01 1.3757731546121474e+00 0.0000000000000000e+00  -1.4360272736914363e+01 1.5352551493551561e+00 0.0000000000000000e+00  -1.5930937648872963e+01 6.5914883261106172e-01 0.0000000000000000e+00  -1.8747481357628661e+01 3.5823388857968319e-01 0.0000000000000000e+00  -1.8205421842764054e+01 5.2536777252385392e-01 0.0000000000000000e+00  -1.5509537148601051e+01 1.4060316950869975e+00 0.0000000000000000e+00  -1.0629241024247596e+01 3.5602598359299535e+00 0.0000000000000000e+00  -7.9756667204271956e+00 4.9369269393098820e+00 0.0000000000000000e+00  -7.9939275628508151e+00 4.9139867880774561e+00 0.0000000000000000e+00  -1.0561724158861709e+01 3.5794387775735390e+00 0.0000000000000000e+00  -1.0859866561590946e+01 3.5761276272295639e+00 0.0000000000000000e+00  -8.4022189507961933e+00 4.8159869033189597e+00 0.0000000000000000e+00  1.2738144949912802e-01 9.1353920981170553e+00 0.0000000000000000e+00  1.5414492649127063e-02 9.0143479284794594e+00 0.0000000000000000e+00  3.8732755861334053e-02 9.1842190070858774e+00 0.0000000000000000e+00  1.0191585027099106e+00 9.0197371567571381e+00 0.0000000000000000e+00  9.6067934524862009e-01 9.1189612345741722e+00 0.0000000000000000e+00  9.9269681018081435e-01 9.0161486755042191e+00 0.0000000000000000e+00  8.4890023940831338e-01 8.6350401239733205e+00 0.0000000000000000e+00  8.4235547619398421e-01 8.6484774784851748e+00 0.0000000000000000e+00  8.3737604340796568e-01 8.8509038584361992e+00 0.0000000000000000e+00  9.1561498175680422e-01 8.8900922013673913e+00 0.0000000000000000e+00  8.9162168718660995e-01 8.8581729445053359e+00 0.0000000000000000e+00  7.5734320604235328e-01 8.9452804085080917e+00 0.0000000000000000e+00  7.1731902309039131e-01 8.7751839728711456e+00 0.0000000000000000e+00  1.8533986039860735e-15 -9.3069769651240261e-17 0.0000000000000000e+00  6.5254556632386007e-17 1.1340249234138539e-16 0.0000000000000000e+00  5.4338040131502586e-15 2.9697257034487025e-15 0.0000000000000000e+00  3.6639928939249822e-15 3.7759657711961384e-15 0.0000000000000000e+00  -1.3693891134974695e+01 1.3879566092269784e+00 0.0000000000000000e+00  -1.0346637983884818e+01 3.5446143788538804e+00 0.0000000000000000e+00  -8.0919878253556163e+00 4.7553103729254911e+00 0.0000000000000000e+00  3.4202068523743072e-02 8.7921720055071919e+00 0.0000000000000000e+00  9.0558523351843012e-01 8.2758619714405750e+00 0.0000000000000000e+00  7.8150918449858686e-01 7.9975770788372058e+00 0.0000000000000000e+00  -2.1121433410754186e+01 -2.2358718833414359e-01 0.0000000000000000e+00  -2.1038775328843261e+01 -3.0512359964823632e-01 0.0000000000000000e+00  -2.1464942883395036e+01 -2.6133717337215023e-01 0.0000000000000000e+00  -2.1839845854672244e+01 -3.2616115601580847e-01 0.0000000000000000e+00  -1.9177896427286456e+01 8.0935962523826011e-01 0.0000000000000000e+00  -1.7811026122376013e+01 1.4961612481346309e+00 0.0000000000000000e+00  -1.7333716121029482e+01 1.6812392459136927e+00 0.0000000000000000e+00  -1.9185056340701486e+01 6.9721297469944865e-01 0.0000000000000000e+00  -2.0609798445172686e+01 3.5411762975359701e-01 0.0000000000000000e+00  -2.0017957951829100e+01 5.3524574034316952e-01 0.0000000000000000e+00  -1.7967928242536669e+01 1.5307793891392549e+00 0.0000000000000000e+00  -1.2916414858871747e+01 3.9682174222399467e+00 0.0000000000000000e+00  -9.7728437295785007e+00 5.5260162843042924e+00 0.0000000000000000e+00  -9.8400152905093901e+00 5.4861034338890091e+00 0.0000000000000000e+00  -1.2855672836460862e+01 3.9850405174041112e+00 0.0000000000000000e+00  -1.2992465737630203e+01 3.9751336913256301e+00 0.0000000000000000e+00  -1.0168423632381311e+01 5.3679895931408685e+00 0.0000000000000000e+00  -1.5352841456658511e-01 1.0273682544248226e+01 0.0000000000000000e+00  -6.4477512818733695e-01 1.0010042995721925e+01 0.0000000000000000e+00  -4.4314395474682361e-01 1.0147108939021525e+01 0.0000000000000000e+00  9.8668933863156183e-01 1.0289386537038872e+01 0.0000000000000000e+00  9.3949594798704306e-01 1.0182044667185080e+01 0.0000000000000000e+00  9.5057671341396854e-01 1.0259403388531839e+01 0.0000000000000000e+00  8.1704296194715664e-01 9.8915183922985683e+00 0.0000000000000000e+00  8.2374212149955628e-01 9.9219108421163273e+00 0.0000000000000000e+00  8.2537986431584720e-01 9.9186842597436957e+00 0.0000000000000000e+00  8.7252291568075113e-01 1.0141161151301120e+01 0.0000000000000000e+00  8.6729955924592528e-01 1.0134743661710216e+01 0.0000000000000000e+00  8.2859044049266417e-01 9.8981725351522147e+00 0.0000000000000000e+00  7.8570691815024973e-01 9.7067296270919385e+00 0.0000000000000000e+00  2.5167566430564145e-15 -5.9245515642615594e-16 0.0000000000000000e+00  2.0093272685700641e-15 -2.6290936185559041e-16 0.0000000000000000e+00  3.6304242821625947e-15 -3.2198771119067835e-16 0.0000000000000000e+00  5.9098628489595442e-15 8.7004898603133524e-16 0.0000000000000000e+00  -1.7260969701368175e+01 1.5290470138335934e+00 0.0000000000000000e+00  -1.2786638918313395e+01 3.9636392878883515e+00 0.0000000000000000e+00  -1.0033632323363694e+01 5.3443440576304919e+00 0.0000000000000000e+00  -2.3694241330405644e-01 1.0053034645144074e+01 0.0000000000000000e+00  9.1814537089902382e-01 9.8014285670703689e+00 0.0000000000000000e+00  7.9552385025697092e-01 9.5315582305877040e+00 0.0000000000000000e+00  -2.1396518524972652e+01 -2.5922141420406875e-01 0.0000000000000000e+00  -2.1350968755135462e+01 -3.7949695666019967e-01 0.0000000000000000e+00  -2.0077124948757270e+01 -3.1247924823541923e-01 0.0000000000000000e+00  -2.0421443395538038e+01 -3.6638425094031690e-01 0.0000000000000000e+00  -1.9405938877279052e+01 8.5513293006977353e-01 0.0000000000000000e+00  -1.8003025338292634e+01 1.6044918490401452e+00 0.0000000000000000e+00  -1.7514146219895377e+01 1.8014662721802368e+00 0.0000000000000000e+00  -1.9424898527060350e+01 7.1578575309519377e-01 0.0000000000000000e+00  -1.9267955443990331e+01 2.9687037601167565e-01 0.0000000000000000e+00  -1.8716085060976543e+01 4.6644616333882100e-01 0.0000000000000000e+00  -1.7550484930224187e+01 1.6202120332569045e+00 0.0000000000000000e+00  -1.2975477001384712e+01 4.3110116987528357e+00 0.0000000000000000e+00  -9.7459069578056354e+00 6.0177710458132845e+00 0.0000000000000000e+00  -9.7718125793441608e+00 5.9850188068778438e+00 0.0000000000000000e+00  -1.2895159565092101e+01 4.3325863761037313e+00 0.0000000000000000e+00  -1.2871465171774767e+01 4.3043936900880455e+00 0.0000000000000000e+00  -1.0033521142018603e+01 5.8203732706752147e+00 0.0000000000000000e+00  1.1817782164780308e-01 1.1216995389268490e+01 0.0000000000000000e+00  -1.8204499164423644e-02 1.1066930824034632e+01 0.0000000000000000e+00  5.7868769181676641e-03 1.0999220823029516e+01 0.0000000000000000e+00  1.2076609677596302e+00 1.1080114776000523e+01 0.0000000000000000e+00  1.1003384370077860e+00 1.0615985721309176e+01 0.0000000000000000e+00  1.1758863479968846e+00 1.1074759649623008e+01 0.0000000000000000e+00  1.0037442961325342e+00 1.0607800649036715e+01 0.0000000000000000e+00  9.9597319785334548e-01 1.0625584515477689e+01 0.0000000000000000e+00  9.5156048647889391e-01 1.0279292787378422e+01 0.0000000000000000e+00  1.0829963259676170e+00 1.0920386472568781e+01 0.0000000000000000e+00  1.0544227015552747e+00 1.0882354218962695e+01 0.0000000000000000e+00  8.0331951172072558e-01 9.5685452480364770e+00 0.0000000000000000e+00  7.6004701791414386e-01 9.3792977152488710e+00 0.0000000000000000e+00  4.3914583361086297e-15 1.3968407438866701e-15 0.0000000000000000e+00  6.3667565376252604e-15 1.2636658410754322e-15 0.0000000000000000e+00  2.4259634200180198e-15 3.1795561665179591e-15