<?xml version="1.0"?>
<VTKFile type="UnstructuredGrid"  version="0.1"  >
<UnstructuredGrid>
<Piece  NumberOfPoints="1969" NumberOfCells="6911">
<Points>
<DataArray  type="Float64"  NumberOfComponents="3"  format="ascii">0.14 0 -0.09000000000000001  0.21 0 -0.09000000000000001  0.1373099392564523 0.02731264508225796 -0.09000000000000001  0.2059649088846784 0.04096896762338693 -0.09000000000000001  0.14 0 -0.02  0.21 0 -0.02  0.1373099392564523 0.02731264508225796 -0.02  0.2059649088846784 0.04096896762338693 -0.02  0.1915 0 -0.02  0.175 0.0165 -0.02  0.1585 0 -0.02  0.1915 0 -0.006  0.175 0.0165 -0.006  0.1585 0 -0.006  0.18445 0 -0.006  0.175 0.00945 -0.006  0.16555 0 -0.006  0.18445 0 0  0.175 0.00945 0  0.16555 0 0  0.193 0 0  0.175 0.018 0  0.157 0 0  0.193 0 0.006  0.175 0.018 0.006  0.157 0 0.006  0.15 0 0  0.2 0 0  0.1471177920604846 0.02926354830241924 0  0.1961570560806461 0.03901806440322565 0  0.15 0 0.241  0.2 0 0.241  0.1471177920604846 0.02926354830241924 0.241  0.1961570560806461 0.03901806440322565 0.241  0.1373099392564523 -0.02731264508225796 -0.09000000000000001  0.2059649088846784 -0.04096896762338693 -0.09000000000000001  0.2059649088846784 -0.04096896762338693 -0.02  0.1373099392564523 -0.02731264508225796 -0.02  0.175 -0.0165 -0.02  0.175 -0.0165 -0.006  0.175 -0.00945 -0.006  0.175 -0.00945 0  0.175 -0.018 0  0.175 -0.018 0.006  0.1471177920604846 -0.02926354830241924 0  0.1961570560806461 -0.03901806440322565 0  0.1961570560806461 -0.03901806440322565 0.241  0.1471177920604846 -0.02926354830241924 0.241  0.1940147018273702 0.08036352079666885 -0.09000000000000001  0.1293431345515802 0.05357568053111257 -0.09000000000000001  0.1164057457223563 0.07777983262274432 -0.09000000000000001  0.1746086185835345 0.1166697489341165 -0.09000000000000001  0.1940147018273702 0.08036352079666885 -0.02  0.1769229304759114 0.07328387729791469 -0.02  0.1464349059030389 0.06065532402986672 -0.02  0.1293431345515802 0.05357568053111257 -0.02  0.1746086185835345 0.1166697489341165 -0.02  0.1164057457223563 0.07777983262274432 -0.02  0.1553646415554512 0.08221361295032695 -0.02  0.1769229304759114 0.07328387729791469 -0.006  0.1704095797717068 0.07058595909974082 -0.006  0.1529482566072435 0.0633532422280406 -0.006  0.1464349059030389 0.06065532402986672 -0.006  0.1553646415554512 0.08221361295032695 -0.006  0.1580625597536251 0.07570026224612236 -0.006  0.1704095797717068 0.07058595909974082 0  0.1529482566072435 0.0633532422280406 0  0.1580625597536251 0.07570026224612236 0  0.145049086604272 0.0600812988813191 0  0.1547906164069036 0.08359943224909387 0  0.1783087497746783 0.07385790244646231 0  0.1783087497746783 0.07385790244646231 0.006  0.145049086604272 0.0600812988813191 0.006  0.1547906164069036 0.08359943224909387 0.006  0.1847759065022574 0.07653668647301796 0  0.138581929876693 0.05740251485476346 0  0.1247204418453818 0.08333553495294033 0  0.1662939224605091 0.1111140466039204 0  0.1847759065022574 0.07653668647301796 0.241  0.138581929876693 0.05740251485476346 0.241  0.1662939224605091 0.1111140466039204 0.241  0.1247204418453818 0.08333553495294033 0.241  0.1679931948234991 0.05172558837745448 -0.02  0.1679931948234991 0.05172558837745448 -0.006  0.1652952766253253 0.05823893908165905 -0.006  0.1652952766253253 0.05823893908165905 0  0.1685672199720468 0.05033976907868755 0  0.1685672199720468 0.05033976907868755 0.006  0.148492424049175 0.148492424049175 -0.09000000000000001  0.09899494936611666 0.09899494936611665 -0.09000000000000001  0.07777983262274432 0.1164057457223563 -0.09000000000000001  0.1166697489341165 0.1746086185835345 -0.09000000000000001  0.148492424049175 0.148492424049175 -0.02  0.1354109485972239 0.1354109485972238 -0.02  0.1120764248180678 0.1120764248180678 -0.02  0.09899494936611666 0.09899494936611665 -0.02  0.1166697489341165 0.1746086185835345 -0.02  0.07777983262274432 0.1164057457223563 -0.02  0.1120764248180678 0.1354109485972238 -0.02  0.1354109485972239 0.1354109485972238 -0.006  0.1304258457898587 0.1304258457898587 -0.006  0.1170615276254329 0.1170615276254329 -0.006  0.1120764248180678 0.1120764248180678 -0.006  0.1120764248180678 0.1354109485972238 -0.006  0.117061527625433 0.1304258457898587 -0.006  0.1304258457898587 0.1304258457898587 0  0.1170615276254329 0.1170615276254329 0  0.117061527625433 0.1304258457898587 0  0.111015764646288 0.111015764646288 0  0.111015764646288 0.1364716087690037 0  0.1364716087690037 0.1364716087690036 0  0.1364716087690037 0.1364716087690036 0.006  0.111015764646288 0.111015764646288 0.006  0.111015764646288 0.1364716087690037 0.006  0.1414213562373095 0.1414213562373095 0  0.1060660171779821 0.1060660171779821 0  0.08333553495294035 0.1247204418453818 0  0.1111140466039205 0.1662939224605091 0  0.1414213562373095 0.1414213562373095 0.241  0.1060660171779821 0.1060660171779821 0.241  0.1111140466039205 0.1662939224605091 0.241  0.08333553495294035 0.1247204418453818 0.241  0.1354109485972239 0.1120764248180678 -0.02  0.1354109485972239 0.1120764248180678 -0.006  0.1304258457898587 0.1170615276254329 -0.006  0.1304258457898587 0.1170615276254329 0  0.1364716087690037 0.1110157646462879 0  0.1364716087690037 0.1110157646462879 0.006  0.08036352079666886 0.1940147018273702 -0.09000000000000001  0.05357568053111258 0.1293431345515802 -0.09000000000000001  0.02731264508225797 0.1373099392564523 -0.09000000000000001  0.04096896762338696 0.2059649088846784 -0.09000000000000001  0.08036352079666886 0.1940147018273702 -0.02  0.0732838772979147 0.1769229304759114 -0.02  0.06065532402986673 0.1464349059030389 -0.02  0.05357568053111258 0.1293431345515802 -0.02  0.04096896762338696 0.2059649088846784 -0.02  0.02731264508225797 0.1373099392564523 -0.02  0.05172558837745448 0.1679931948234991 -0.02  0.0732838772979147 0.1769229304759114 -0.006  0.07058595909974082 0.1704095797717068 -0.006  0.06335324222804062 0.1529482566072435 -0.006  0.06065532402986673 0.1464349059030389 -0.006  0.05172558837745448 0.1679931948234991 -0.006  0.05823893908165905 0.1652952766253253 -0.006  0.07058595909974082 0.1704095797717068 0  0.06335324222804062 0.1529482566072435 0  0.05823893908165905 0.1652952766253253 0  0.06008129888131911 0.145049086604272 0  0.05033976907868755 0.1685672199720468 0  0.07385790244646233 0.1783087497746783 0  0.07385790244646233 0.1783087497746783 0.006  0.06008129888131911 0.145049086604272 0.006  0.05033976907868755 0.1685672199720468 0.006  0.07653668647301798 0.1847759065022574 0  0.05740251485476347 0.138581929876693 0  0.02926354830241925 0.1471177920604846 0  0.03901806440322567 0.1961570560806461 0  0.07653668647301798 0.1847759065022574 0.241  0.05740251485476347 0.138581929876693 0.241  0.03901806440322567 0.1961570560806461 0.241  0.02926354830241925 0.1471177920604846 0.241  0.08221361295032695 0.1553646415554512 -0.02  0.08221361295032695 0.1553646415554512 -0.006  0.07570026224612236 0.1580625597536251 -0.006  0.07570026224612236 0.1580625597536251 0  0.08359943224909387 0.1547906164069036 0  0.08359943224909387 0.1547906164069036 0.006  1.285879139104721e-17 0.21 -0.09000000000000001  8.572527594031473e-18 0.14 -0.09000000000000001  -0.02731264508225795 0.1373099392564523 -0.09000000000000001  -0.04096896762338691 0.2059649088846784 -0.09000000000000001  1.285879139104721e-17 0.21 -0.02  1.172599310183591e-17 0.1915 -0.02  9.705325883242773e-18 0.1585 -0.02  8.572527594031473e-18 0.14 -0.02  -0.04096896762338691 0.2059649088846784 -0.02  -0.02731264508225795 0.1373099392564523 -0.02  -0.01649999999999999 0.175 -0.02  1.172599310183591e-17 0.1915 -0.006  1.129430510513647e-17 0.18445 -0.006  1.013701387994221e-17 0.16555 -0.006  9.705325883242773e-18 0.1585 -0.006  -0.01649999999999999 0.175 -0.006  -0.00944999999999999 0.175 -0.006  1.129430510513647e-17 0.18445 0  1.013701387994221e-17 0.16555 0  -0.00944999999999999 0.175 0  9.613477373306723e-18 0.157 0  -0.01799999999999999 0.175 0  1.181784161177196e-17 0.193 0  1.181784161177196e-17 0.193 0.006  9.613477373306723e-18 0.157 0.006  -0.01799999999999999 0.175 0.006  1.224646799147353e-17 0.2 0  9.184850993605149e-18 0.15 0  -0.02926354830241923 0.1471177920604846 0  -0.03901806440322564 0.1961570560806461 0  1.224646799147353e-17 0.2 0.241  9.184850993605149e-18 0.15 0.241  -0.03901806440322564 0.1961570560806461 0.241  -0.02926354830241923 0.1471177920604846 0.241  0.01650000000000001 0.175 -0.02  0.01650000000000001 0.175 -0.006  0.00945000000000001 0.175 -0.006  0.00945000000000001 0.175 0  0.01800000000000001 0.175 0  0.01800000000000001 0.175 0.006  -0.08036352079666884 0.1940147018273702 -0.09000000000000001  -0.05357568053111256 0.1293431345515802 -0.09000000000000001  -0.07777983262274431 0.1164057457223563 -0.09000000000000001  -0.1166697489341164 0.1746086185835345 -0.09000000000000001  -0.08036352079666884 0.1940147018273702 -0.02  -0.07328387729791469 0.1769229304759114 -0.02  -0.06065532402986671 0.1464349059030389 -0.02  -0.05357568053111256 0.1293431345515802 -0.02  -0.1166697489341164 0.1746086185835345 -0.02  -0.07777983262274431 0.1164057457223563 -0.02  -0.08221361295032693 0.1553646415554512 -0.02  -0.07328387729791469 0.1769229304759114 -0.006  -0.0705859590997408 0.1704095797717068 -0.006  -0.06335324222804059 0.1529482566072435 -0.006  -0.06065532402986671 0.1464349059030389 -0.006  -0.08221361295032693 0.1553646415554512 -0.006  -0.07570026224612236 0.1580625597536251 -0.006  -0.0705859590997408 0.1704095797717068 0  -0.06335324222804059 0.1529482566072435 0  -0.07570026224612236 0.1580625597536251 0  -0.06008129888131909 0.145049086604272 0  -0.08359943224909386 0.1547906164069036 0  -0.07385790244646231 0.1783087497746783 0  -0.07385790244646231 0.1783087497746783 0.006  -0.06008129888131909 0.145049086604272 0.006  -0.08359943224909386 0.1547906164069036 0.006  -0.07653668647301795 0.1847759065022574 0  -0.05740251485476346 0.138581929876693 0  -0.08333553495294033 0.1247204418453818 0  -0.1111140466039204 0.1662939224605091 0  
[...]
<PointData  Vectors="f_289"> 
<DataArray  type="Float64"  Name="f_289"  NumberOfComponents="3" format="ascii">1.3743784746667043e+01 3.0183626787211848e+00 0.0000000000000000e+00  1.3781237042701285e+01 2.9414842659363707e+00 0.0000000000000000e+00  1.6962685758629981e+01 2.5596455636444926e+00 0.0000000000000000e+00  1.7215504721797373e+01 2.6324567593597537e+00 0.0000000000000000e+00  1.2651828276169704e+01 2.0131821101556895e+00 0.0000000000000000e+00  1.2655556884327680e+01 1.9187665794423052e+00 0.0000000000000000e+00  1.5882434057336283e+01 1.6865520557592251e+00 0.0000000000000000e+00  1.6324645713204827e+01 1.9103577044627946e+00 0.0000000000000000e+00  1.1856181210073155e+01 1.2227918360289811e+00 0.0000000000000000e+00  1.3023571773445410e+01 1.0074106502411433e+00 0.0000000000000000e+00  1.1570770187845625e+01 1.0230404238834570e+00 0.0000000000000000e+00  8.9916527779207236e+00 -1.2846172265304623e+00 0.0000000000000000e+00  9.3375517190607020e+00 -1.3577900380812489e+00 0.0000000000000000e+00  8.9482015127268753e+00 -1.3079058170214037e+00 0.0000000000000000e+00  7.1463170841785697e+00 -2.8733909213709388e+00 0.0000000000000000e+00  7.5573229282252372e+00 -2.7763082361434939e+00 0.0000000000000000e+00  7.1698223171842237e+00 -2.8421936441640825e+00 0.0000000000000000e+00  1.5021282283408015e+00 -7.7189946885297056e+00 0.0000000000000000e+00  1.6279208280168758e+00 -7.8279693215901318e+00 0.0000000000000000e+00  1.6613314468613423e+00 -7.5339990564131512e+00 0.0000000000000000e+00  7.8997505789968592e-01 -7.7849904559853442e+00 0.0000000000000000e+00  6.4905083564549926e-01 -8.2538640472645106e+00 0.0000000000000000e+00  7.6670680596556617e-01 -7.8003729104184361e+00 0.0000000000000000e+00  8.3188077817126760e-01 -7.4545889765778881e+00 0.0000000000000000e+00  6.9246761670902046e-01 -8.0188241026431459e+00 0.0000000000000000e+00  8.3601550489504395e-01 -7.4694828698784637e+00 0.0000000000000000e+00  8.3626765138524795e-01 -7.6521744951540844e+00 0.0000000000000000e+00  8.2777323511953627e-01 -7.6707623517322290e+00 0.0000000000000000e+00  4.7111250729187332e-01 -8.6963867788426050e+00 0.0000000000000000e+00  4.8271871085268653e-01 -8.5285535163974355e+00 0.0000000000000000e+00  -3.6236891832412714e-15 -1.8771415132868975e-15 0.0000000000000000e+00  -1.2754035734782371e-16 -3.1477249029469659e-15 0.0000000000000000e+00  -4.0838593444963463e-16 -1.4328993754836496e-15 0.0000000000000000e+00  -3.2653463943473244e-15 -1.0288213168976698e-15 0.0000000000000000e+00  9.8317893702512436e+00 3.2032044916851317e+00 0.0000000000000000e+00  9.9888685948158376e+00 3.2875250259163846e+00 0.0000000000000000e+00  9.5318720810299222e+00 2.7739489568219291e+00 0.0000000000000000e+00  9.2907858297782226e+00 2.5980405125827843e+00 0.0000000000000000e+00  1.0445078253552415e+01 1.3453206708378558e+00 0.0000000000000000e+00  8.6100796884860600e+00 -1.2182900653345927e+00 0.0000000000000000e+00  7.1190612384004668e+00 -2.6236612643705404e+00 0.0000000000000000e+00  1.5895690748157247e+00 -7.2573823543005780e+00 0.0000000000000000e+00  9.0528423864423857e-01 -6.8263662609297544e+00 0.0000000000000000e+00  9.5248037660568319e-01 -6.5918168265540373e+00 0.0000000000000000e+00  1.1677885917866135e+00 -5.0489518052812592e+00 0.0000000000000000e+00  1.1551042169600838e+00 -4.9473527348634443e+00 0.0000000000000000e+00  -3.3438877052305173e-16 -1.8890257695293623e-15 0.0000000000000000e+00  -1.5723392421007488e-15 -1.9322090425819016e-15 0.0000000000000000e+00  1.9764275118373728e+01 2.0470078924880664e+00 0.0000000000000000e+00  1.9693262778580792e+01 2.1352863863015585e+00 0.0000000000000000e+00  2.1479573054697827e+01 1.4930326471644495e+00 0.0000000000000000e+00  2.1818723179925488e+01 1.5688594827978943e+00 0.0000000000000000e+00  1.8031424062868009e+01 7.8587795116149362e-01 0.0000000000000000e+00  1.6805573577468856e+01 -6.5502297341797952e-02 0.0000000000000000e+00  1.6372905724534174e+01 -3.0299635957060939e-01 0.0000000000000000e+00  1.8036209730896214e+01 9.1401823949694727e-01 0.0000000000000000e+00  2.0630090661580795e+01 7.5249496253076831e-01 0.0000000000000000e+00  2.0050252280133780e+01 5.1451385894567525e-01 0.0000000000000000e+00  1.7444751251234134e+01 -3.3588212440460968e-01 0.0000000000000000e+00  1.2412139872257816e+01 -3.1330356940828525e+00 0.0000000000000000e+00  9.5846436867741396e+00 -5.0728296637635859e+00 0.0000000000000000e+00  9.6089239393046100e+00 -5.0410807029885749e+00 0.0000000000000000e+00  1.2341451775444051e+01 -3.1628049583070523e+00 0.0000000000000000e+00  1.2616753119343027e+01 -3.2117725430379442e+00 0.0000000000000000e+00  1.0020766319070205e+01 -4.9255651650556720e+00 0.0000000000000000e+00  9.2073817082119302e-01 -1.0984984103195696e+01 0.0000000000000000e+00  1.0664036979020939e+00 -1.0835771089449002e+01 0.0000000000000000e+00  1.1745744676241341e+00 -1.0909442765434036e+01 0.0000000000000000e+00  -8.1640671246724819e-02 -1.1000569602692268e+01 0.0000000000000000e+00  -1.7830944368705023e-01 -1.1079856913179352e+01 0.0000000000000000e+00  -4.4957958989120632e-02 -1.0976407314923893e+01 0.0000000000000000e+00  6.0759635768149745e-02 -1.0535438119467452e+01 0.0000000000000000e+00  6.3574186624801382e-02 -1.0560454802186310e+01 0.0000000000000000e+00  -8.7238155500199477e-02 -1.0763749437402474e+01 0.0000000000000000e+00  2.0761434592611951e-02 -1.0834942912856999e+01 0.0000000000000000e+00  3.7622206519073026e-02 -1.0808064392153302e+01 0.0000000000000000e+00  -2.7195143714298448e-01 -1.0918797660255327e+01 0.0000000000000000e+00  -2.3717167470144340e-01 -1.0704204638299295e+01 0.0000000000000000e+00  -1.6926118122862806e-15 -1.2223002204328558e-15 0.0000000000000000e+00  -2.3042046637520751e-15 -7.9273084598232619e-16 0.0000000000000000e+00  -7.0956032865642934e-16 -3.2114335011355522e-15 0.0000000000000000e+00  -1.4727529108435051e-15 2.1439775437681201e-18 0.0000000000000000e+00  1.5810588640485843e+01 1.0964006505552770e-01 0.0000000000000000e+00  1.2156562403055993e+01 -3.0590182360450386e+00 0.0000000000000000e+00  9.7443625952172201e+00 -4.7917994533203805e+00 0.0000000000000000e+00  1.0957687380392900e+00 -1.0600347298618443e+01 0.0000000000000000e+00  1.0856893285903875e-01 -1.0191712329692916e+01 0.0000000000000000e+00  2.1001040744349284e-01 -9.8628667220893487e+00 0.0000000000000000e+00  2.2734384875477165e+01 8.3241683453040050e-01 0.0000000000000000e+00  2.2622537989179968e+01 9.1538679703038317e-01 0.0000000000000000e+00  2.2776084872625979e+01 2.3448294470341327e-01 0.0000000000000000e+00  2.3094080429797078e+01 2.6221191574671171e-01 0.0000000000000000e+00  2.0660238060706220e+01 -4.8211291571989062e-01 0.0000000000000000e+00  1.9196037674406572e+01 -1.3664759509096951e+00 0.0000000000000000e+00  1.8686504540909567e+01 -1.6046970472672193e+00 0.0000000000000000e+00  2.0672419430845654e+01 -3.3514181257522369e-01 0.0000000000000000e+00  2.1790131009440259e+01 -5.2386405411650183e-01 0.0000000000000000e+00  2.1166499216852152e+01 -7.3654108838333754e-01 0.0000000000000000e+00  1.9210551008584570e+01 -1.6487247941117276e+00 0.0000000000000000e+00  1.3946925909879637e+01 -4.5543316714506918e+00 0.0000000000000000e+00  1.0572139091787069e+01 -6.5649024253056147e+00 0.0000000000000000e+00  1.0649438221430939e+01 -6.5120004023336513e+00 0.0000000000000000e+00  1.3884476118903336e+01 -4.5752244935183297e+00 0.0000000000000000e+00  1.3981719016569157e+01 -4.6271869516224067e+00 0.0000000000000000e+00  1.0964895308371856e+01 -6.3934843371749581e+00 0.0000000000000000e+00  2.1237866980220763e-01 -1.2697430732040861e+01 0.0000000000000000e+00  7.8639917727393993e-01 -1.2344192662819513e+01 0.0000000000000000e+00  5.1304899458108633e-01 -1.2461927536709013e+01 0.0000000000000000e+00  -9.3165223554777310e-01 -1.2626644334598529e+01 0.0000000000000000e+00  -9.9284163135931647e-01 -1.2316450822451312e+01 0.0000000000000000e+00  -8.9303245595440317e-01 -1.2599510939436680e+01 0.0000000000000000e+00  -7.3621465253937290e-01 -1.2093483390919390e+01 0.0000000000000000e+00  -7.4317064111270015e-01 -1.2118006783278004e+01 0.0000000000000000e+00  -8.6202770291545683e-01 -1.1951647389812001e+01 0.0000000000000000e+00  -8.0601064086982366e-01 -1.2438553922925440e+01 0.0000000000000000e+00  -7.9350189468077481e-01 -1.2403881418418079e+01 0.0000000000000000e+00  -9.8457059080001064e-01 -1.1525294073468027e+01 0.0000000000000000e+00  -9.3470131446321425e-01 -1.1302394136978355e+01 0.0000000000000000e+00  -6.0091728248977805e-16 -5.8525001818562168e-16 0.0000000000000000e+00  -7.9043490472461044e-16 -1.6874732187135495e-15 0.0000000000000000e+00  -4.6057602128543416e-16 -1.1605349423690353e-15 0.0000000000000000e+00  -1.3311101601144691e-15 -9.3573447648058178e-16 0.0000000000000000e+00  1.8770007207965790e+01 -1.1632611227658756e+00 0.0000000000000000e+00  1.3859223294458655e+01 -4.4826076365107665e+00 0.0000000000000000e+00  1.0892747188648299e+01 -6.2954896032961489e+00 0.0000000000000000e+00  4.1274605798577074e-01 -1.2446579835079495e+01 0.0000000000000000e+00  -7.1365326768016568e-01 -1.2074455966367594e+01 0.0000000000000000e+00  -5.7135680026749691e-01 -1.1704610961943599e+01 0.0000000000000000e+00  2.2235339020664899e+01 -5.0809259715601707e-01 0.0000000000000000e+00  2.2171065551712296e+01 -3.9653164689950671e-01 0.0000000000000000e+00  2.0511640870703356e+01 -1.1181033380662009e+00 0.0000000000000000e+00  2.0844837021032312e+01 -1.0840960672551438e+00 0.0000000000000000e+00  2.0133618201435738e+01 -1.6700085106039471e+00 0.0000000000000000e+00  1.8652774090538347e+01 -2.4468427667412698e+00 0.0000000000000000e+00  1.8140341971944018e+01 -2.6500674026992384e+00 0.0000000000000000e+00  2.0157679595515056e+01 -1.5264172724783718e+00 0.0000000000000000e+00  1.9620699553132649e+01 -1.7203895140238141e+00 0.0000000000000000e+00  1.9039415170810283e+01 -1.8799844980790814e+00 0.0000000000000000e+00  1.8036036290420810e+01 -2.6995058951262392e+00 0.0000000000000000e+00  1.3343878654163426e+01 -5.2489552164239264e+00 0.0000000000000000e+00  9.9356882980016792e+00 -7.0123352430086099e+00 0.0000000000000000e+00  9.9781781435255734e+00 -6.9786588687644606e+00 0.0000000000000000e+00  1.3266169888304541e+01 -5.2716356065681689e+00 0.0000000000000000e+00  1.3191093995565243e+01 -5.3059916036415080e+00 0.0000000000000000e+00  1.0204466911287721e+01 -6.8435448515331680e+00 0.0000000000000000e+00  -4.7991242564702052e-01 -1.2388480018964655e+01 0.0000000000000000e+00  -1.7681538582783674e-01 -1.2174492563738525e+01 0.0000000000000000e+00  -4.3117278940675946e-01 -1.2111253100120450e+01 0.0000000000000000e+00  -1.6521169930758681e+00 -1.2273893464347745e+01 0.0000000000000000e+00  -1.6638708834577591e+00 -1.1658917882469174e+01 0.0000000000000000e+00  -1.6048947182265729e+00 -1.2250337903163977e+01 0.0000000000000000e+00  -1.4247935912131500e+00 -1.1767665419699503e+01 0.0000000000000000e+00  -1.4270198794449152e+00 -1.1796054739520468e+01 0.0000000000000000e+00  -1.5070406485362731e+00 -1.1320117662321188e+01 0.0000000000000000e+00  -1.5081992689737969e+00 -1.2093482544477661e+01 0.0000000000000000e+00  -1.4926556496832619e+00 -1.2074087586815784e+01 0.0000000000000000e+00  -1.5726549333659816e+00 -1.0363117491253821e+01 0.0000000000000000e+00  -1.5170809447706730e+00 -1.0162897782905681e+01 0.0000000000000000e+00  -2.9390030823523474e-15 -2.1551135862678259e-16 0.0000000000000000e+00  -9.0118594536300805e-16 -1.5922552846666396e-15 0.0000000000000000e+00  -1.4377784580980746e-15 -2.7490967012455004e-15 0.0000000000000000e+00  -1.3779503587737684e-15 -2.9489110178912494e-16 0.0000000000000000e+00  1.8862038381743695e+01 -2.2484978796752966e+00 0.0000000000000000e+00  1.3432858868662478e+01 -5.1934905947579590e+00 0.0000000000000000e+00  1.0363762022357983e+01 -6.7987005820387409e+00 0.0000000000000000e+00  -3.1714113710791997e-01 -1.2318290182912232e+01 0.0000000000000000e+00  -1.4284714603921036e+00 -1.2111640609945487e+01 0.0000000000000000e+00  -1.2719159427039979e+00 -1.1772772642434511e+01 0.0000000000000000e+00  1.8349169504995491e+01 -1.7665238220414923e+00 0.0000000000000000e+00  1.8297216712379132e+01 -1.6731197721202724e+00 0.0000000000000000e+00  1.5175797716858343e+01 -2.2576097891154365e+00 0.0000000000000000e+00  1.5430192327533916e+01 -2.2521442645707328e+00 0.0000000000000000e+00  1.6533686281975356e+01 -2.6068581035232281e+00 0.0000000000000000e+00  1.5257497254711161e+01 -3.1643444393934184e+00 0.0000000000000000e+00  1.4819498234258987e+01 -3.3023185342758432e+00 0.0000000000000000e+00  1.6562504389992885e+01 -2.4883288665124703e+00 0.0000000000000000e+00  1.4468593525587288e+01 -2.6451513843928374e+00 0.0000000000000000e+00  1.4022992146047310e+01 -2.7252618245970535e+00 0.0000000000000000e+00  1.4108830973303430e+01 -3.3454119276616212e+00 0.0000000000000000e+00  1.0681955097492303e+01 -5.1775721722651342e+00 0.0000000000000000e+00  7.7465551341925005e+00 -6.4409906081481685e+00 0.0000000000000000e+00  7.7679081438340178e+00 -6.4183741263669187e+00 0.0000000000000000e+00  1.0609225632495161e+01 -5.1928500124947261e+00 0.0000000000000000e+00  1.0374748821504079e+01 -5.2073949445658503e+00 0.0000000000000000e+00  7.8729067191819837e+00 -6.2937347585385952e+00 0.0000000000000000e+00  -1.2163729553006368e+00 -1.0291346378437828e+01 0.0000000000000000e+00  -1.0902118912421745e+00 -1.0173931163197528e+01 0.0000000000000000e+00  -1.1609771835526166e+00 -9.8959525132002319e+00 0.0000000000000000e+00  -2.1634861879892693e+00 -1.0104348749133990e+01 0.0000000000000000e+00  -2.1346682827209471e+00 -9.2288959264898747e+00 0.0000000000000000e+00  -2.1299274087046940e+00 -1.0096351972310600e+01 0.0000000000000000e+00  -1.9469611530005018e+00 -9.6997240839778733e+00 0.0000000000000000e+00  -1.9460050196749850e+00 -9.7212429308450208e+00 0.0000000000000000e+00  -1.9820479888491263e+00 -8.9395894688690500e+00 0.0000000000000000e+00  -2.0391928008522213e+00 -9.9694248026658272e+00 0.0000000000000000e+00  -2.0173687884577767e+00 -9.9450844399544138e+00 0.0000000000000000e+00  -1.9717496414116698e+00 -7.6609652101339307e+00 0.0000000000000000e+00  -1.9104506885646737e+00 -7.5144723688277111e+00 0.0000000000000000e+00  -1.2236481442363874e-15 -3.4304266047710284e-16 0.0000000000000000e+00  -1.5943515858246626e-17 -8.8959608476708720e-17 0.0000000000000000e+00  -2.9841777405188400e-15 -3.4976048052535657e-15 0.0000000000000000e+00  -1.6751325314779970e-15 -2.7122247767378405e-15 0.0000000000000000e+00  1.6065454272345949e+01 -3.0028010912245557e+00 0.0000000000000000e+00  1.0934733270156363e+01 -5.1440605094056302e+00 0.0000000000000000e+00  8.2225032005761882e+00 -6.3080935396470723e+00 0.0000000000000000e+00  -1.0611263074688768e+00 -1.0393072930642475e+01 0.0000000000000000e+00  -1.9686267311217154e+00 -1.0313900432139413e+01 0.0000000000000000e+00  -1.8141351956550935e+00 -1.0035269522055161e+01 0.0000000000000000e+00  1.1685878649493130e+01 -2.7369896429789953e+00 0.0000000000000000e+00  1.1660825517048185e+01 -2.6709009939217023e+00 0.0000000000000000e+00  7.5540888922083562e+00 -3.0229287315256146e+00 0.0000000000000000e+00  7.6942546414041599e+00 -3.0519362539990214e+00 0.0000000000000000e+00  1.0428284569106760e+01 -3.1284998240862900e+00 0.0000000000000000e+00  9.5463157747424656e+00 -3.3818648132421174e+00 0.0000000000000000e+00  9.2524478671193080e+00 -3.4327890639787038e+00 0.0000000000000000e+00  1.0462124684317564e+01 -3.0520972161024003e+00 0.0000000000000000e+00  7.1467555082182006e+00 -3.1427382265409127e+00 0.0000000000000000e+00  6.9118007543251458e+00 -3.1273129356840839e+00 0.0000000000000000e+00  8.0471970823589345e+00 -3.4614568876588763e+00 0.0000000000000000e+00  6.3798419120523890e+00 -4.3000140092168717e+00 0.0000000000000000e+00  4.3507315743258168e+00 -4.8701126849353713e+00 0.0000000000000000e+00  4.3968927012810308e+00 -4.8521859316372318e+00 0.0000000000000000e+00  6.3447837077266174e+00 -4.3012789866448475e+00 0.0000000000000000e+00  5.9731706057040652e+00 -4.2973028453344515e+00 0.0000000000000000e+00  4.3277885285339215e+00 -4.7681386273131876e+00 0.0000000000000000e+00  -1.8567737389044967e+00 -6.6023768723347338e+00 0.0000000000000000e+00  -1.5286658745476138e+00 -6.4928097716580391e+00 0.0000000000000000e+00  -1.6683282932714838e+00 -6.1444830471290715e+00 0.0000000000000000e+00  -2.4232476255612676e+00 -6.4025093176760599e+00 0.0000000000000000e+00  -2.3116598563725517e+00 -5.4053505383642202e+00 0.0000000000000000e+00  -2.4068356494050427e+00 -6.3967911535140916e+00 0.0000000000000000e+00  -2.2346389666376609e+00 -6.1563022900167272e+00 0.0000000000000000e+00  -2.2367717191232956e+00 -6.1677936671336075e+00 0.0000000000000000e+00  -2.1800048227207358e+00 -5.2300512645646462e+00 0.0000000000000000e+00  -2.3301518643840304e+00 -6.3229436888888744e+00 0.0000000000000000e+00  -2.3119813849566015e+00 -6.3073445228449678e+00 0.0000000000000000e+00  -1.9949801750887068e+00 -3.7951425928557998e+00 0.0000000000000000e+00  -1.9433629473749450e+00 -3.7262295133808183e+00 0.0000000000000000e+00  -1.6719532591819497e-15 -4.4313456100789887e-16 0.0000000000000000e+00  -1.2909009113209767e-15 -3.3470972674913425e-16 0.0000000000000000e+00  -2.5518793842946961e-15 -1.1818981611178935e-15 0.0000000000000000e+00  -2.9091083766068441e-15 -2.2904676315293879e-15 0.0000000000000000e+00  1.0827265041254908e+01 -3.2840899503217060e+00 0.0000000000000000e+00  6.7590389992048587e+00 -4.2951126376277706e+00 0.0000000000000000e+00  4.8024571681725865e+00 -4.8423322176796528e+00 0.0000000000000000e+00  -1.7507610654508343e+00 -6.8769202721805271e+00 0.0000000000000000e+00  -2.2923528903254486e+00 -6.9728742821567904e+00 0.0000000000000000e+00  -2.1551165529718666e+00 -6.8115202412595810e+00 0.0000000000000000e+00  3.2781305363378501e+00 -3.2617567769831943e+00 0.0000000000000000e+00  3.2912533432446471e+00 -3.2336206126184517e+00 0.0000000000000000e+00  -1.1767655824054797e+00 -3.2959242979658794e+00 0.0000000000000000e+00  -1.1873361892039020e+00 -3.3569943574826770e+00 0.0000000000000000e+00  2.7894042982388609e+00 -3.1476430844287009e+00 0.0000000000000000e+00  2.4519780118598868e+00 -3.0603826050766827e+00 0.0000000000000000e+00  2.3449625506745706e+00 -3.0186970341591457e+00 0.0000000000000000e+00  2.8149864668922504e+00 -3.1261733320042677e+00 0.0000000000000000e+00  -1.2334919797713777e+00 -3.1330184831091219e+00 0.0000000000000000e+00  -1.2306912883485486e+00 -3.0317712158647727e+00 0.0000000000000000e+00  8.2662810358050443e-01 -3.0256100703801505e+00 0.0000000000000000e+00  1.2394034302518480e+00 -2.7511699520600743e+00 0.0000000000000000e+00  4.6552500620770604e-01 -2.5468548802905033e+00 0.0000000000000000e+00  4.7444161727798290e-01 -2.5457524293464497e+00 0.0000000000000000e+00  1.2234006405676601e+00 -2.7427098959912506e+00 0.0000000000000000e+00  7.8537173115323688e-01 -2.7161148500643271e+00 0.0000000000000000e+00  2.7612524382913750e-01 -2.5038242107998365e+00 0.0000000000000000e+00  -1.8956896358279922e+00 -1.9209250931300539e+00 0.0000000000000000e+00  -1.8530495778523624e+00 -1.9191813628104006e+00 0.0000000000000000e+00  -1.8429333338057050e+00 -1.4988022064426751e+00 0.0000000000000000e+00  -2.0541208853183659e+00 -1.7405811857930693e+00 0.0000000000000000e+00  -1.9211345874574308e+00 -8.0422818012784403e-01 0.0000000000000000e+00  -2.0451429794155973e+00 -1.7423503131933920e+00 0.0000000000000000e+00  -1.9477930528150462e+00 -1.6923547120223694e+00 0.0000000000000000e+00  -1.9521637645777565e+00 -1.6979290582401751e+00 0.0000000000000000e+00  -1.8466135948862739e+00 -7.6311551459427251e-01 0.0000000000000000e+00  -2.0080712146088326e+00 -1.7316871995389513e+00 0.0000000000000000e+00  -2.0017925192986294e+00 -1.7332099540458676e+00 0.0000000000000000e+00  -1.6452065251012862e+00 6.2938230791817673e-01 0.0000000000000000e+00  -1.6153601074733377e+00 6.0974022633229641e-01 0.0000000000000000e+00  -2.7014229945990014e-15 -2.1145247913037565e-15 0.0000000000000000e+00  -3.