<?xml version="1.0"?>
<VTKFile type="UnstructuredGrid"  version="0.1"  >
<UnstructuredGrid>
<Piece  NumberOfPoints="1969" NumberOfCells="6911">
<Points>
<DataArray  type="Float64"  NumberOfComponents="3"  format="ascii">0.14 0 -0.09000000000000001  0.21 0 -0.09000000000000001  0.1373099392564523 0.02731264508225796 -0.09000000000000001  0.2059649088846784 0.04096896762338693 -0.09000000000000001  0.14 0 -0.02  0.21 0 -0.02  0.1373099392564523 0.02731264508225796 -0.02  0.2059649088846784 0.04096896762338693 -0.02  0.1915 0 -0.02  0.175 0.0165 -0.02  0.1585 0 -0.02  0.1915 0 -0.006  0.175 0.0165 -0.006  0.1585 0 -0.006  0.18445 0 -0.006  0.175 0.00945 -0.006  0.16555 0 -0.006  0.18445 0 0  0.175 0.00945 0  0.16555 0 0  0.193 0 0  0.175 0.018 0  0.157 0 0  0.193 0 0.006  0.175 0.018 0.006  0.157 0 0.006  0.15 0 0  0.2 0 0  0.1471177920604846 0.02926354830241924 0  0.1961570560806461 0.03901806440322565 0  0.15 0 0.241  0.2 0 0.241  0.1471177920604846 0.02926354830241924 0.241  0.1961570560806461 0.03901806440322565 0.241  0.1373099392564523 -0.02731264508225796 -0.09000000000000001  0.2059649088846784 -0.04096896762338693 -0.09000000000000001  0.2059649088846784 -0.04096896762338693 -0.02  0.1373099392564523 -0.02731264508225796 -0.02  0.175 -0.0165 -0.02  0.175 -0.0165 -0.006  0.175 -0.00945 -0.006  0.175 -0.00945 0  0.175 -0.018 0  0.175 -0.018 0.006  0.1471177920604846 -0.02926354830241924 0  0.1961570560806461 -0.03901806440322565 0  0.1961570560806461 -0.03901806440322565 0.241  0.1471177920604846 -0.02926354830241924 0.241  0.1940147018273702 0.08036352079666885 -0.09000000000000001  0.1293431345515802 0.05357568053111257 -0.09000000000000001  0.1164057457223563 0.07777983262274432 -0.09000000000000001  0.1746086185835345 0.1166697489341165 -0.09000000000000001  0.1940147018273702 0.08036352079666885 -0.02  0.1769229304759114 0.07328387729791469 -0.02  0.1464349059030389 0.06065532402986672 -0.02  0.1293431345515802 0.05357568053111257 -0.02  0.1746086185835345 0.1166697489341165 -0.02  0.1164057457223563 0.07777983262274432 -0.02  0.1553646415554512 0.08221361295032695 -0.02  0.1769229304759114 0.07328387729791469 -0.006  0.1704095797717068 0.07058595909974082 -0.006  0.1529482566072435 0.0633532422280406 -0.006  0.1464349059030389 0.06065532402986672 -0.006  0.1553646415554512 0.08221361295032695 -0.006  0.1580625597536251 0.07570026224612236 -0.006  0.1704095797717068 0.07058595909974082 0  0.1529482566072435 0.0633532422280406 0  0.1580625597536251 0.07570026224612236 0  0.145049086604272 0.0600812988813191 0  0.1547906164069036 0.08359943224909387 0  0.1783087497746783 0.07385790244646231 0  0.1783087497746783 0.07385790244646231 0.006  0.145049086604272 0.0600812988813191 0.006  0.1547906164069036 0.08359943224909387 0.006  0.1847759065022574 0.07653668647301796 0  0.138581929876693 0.05740251485476346 0  0.1247204418453818 0.08333553495294033 0  0.1662939224605091 0.1111140466039204 0  0.1847759065022574 0.07653668647301796 0.241  0.138581929876693 0.05740251485476346 0.241  0.1662939224605091 0.1111140466039204 0.241  0.1247204418453818 0.08333553495294033 0.241  0.1679931948234991 0.05172558837745448 -0.02  0.1679931948234991 0.05172558837745448 -0.006  0.1652952766253253 0.05823893908165905 -0.006  0.1652952766253253 0.05823893908165905 0  0.1685672199720468 0.05033976907868755 0  0.1685672199720468 0.05033976907868755 0.006  0.148492424049175 0.148492424049175 -0.09000000000000001  0.09899494936611666 0.09899494936611665 -0.09000000000000001  0.07777983262274432 0.1164057457223563 -0.09000000000000001  0.1166697489341165 0.1746086185835345 -0.09000000000000001  0.148492424049175 0.148492424049175 -0.02  0.1354109485972239 0.1354109485972238 -0.02  0.1120764248180678 0.1120764248180678 -0.02  0.09899494936611666 0.09899494936611665 -0.02  0.1166697489341165 0.1746086185835345 -0.02  0.07777983262274432 0.1164057457223563 -0.02  0.1120764248180678 0.1354109485972238 -0.02  0.1354109485972239 0.1354109485972238 -0.006  0.1304258457898587 0.1304258457898587 -0.006  0.1170615276254329 0.1170615276254329 -0.006  0.1120764248180678 0.1120764248180678 -0.006  0.1120764248180678 0.1354109485972238 -0.006  0.117061527625433 0.1304258457898587 -0.006  0.1304258457898587 0.1304258457898587 0  0.1170615276254329 0.1170615276254329 0  0.117061527625433 0.1304258457898587 0  0.111015764646288 0.111015764646288 0  0.111015764646288 0.1364716087690037 0  0.1364716087690037 0.1364716087690036 0  0.1364716087690037 0.1364716087690036 0.006  0.111015764646288 0.111015764646288 0.006  0.111015764646288 0.1364716087690037 0.006  0.1414213562373095 0.1414213562373095 0  0.1060660171779821 0.1060660171779821 0  0.08333553495294035 0.1247204418453818 0  0.1111140466039205 0.1662939224605091 0  0.1414213562373095 0.1414213562373095 0.241  0.1060660171779821 0.1060660171779821 0.241  0.1111140466039205 0.1662939224605091 0.241  0.08333553495294035 0.1247204418453818 0.241  0.1354109485972239 0.1120764248180678 -0.02  0.1354109485972239 0.1120764248180678 -0.006  0.1304258457898587 0.1170615276254329 -0.006  0.1304258457898587 0.1170615276254329 0  0.1364716087690037 0.1110157646462879 0  0.1364716087690037 0.1110157646462879 0.006  0.08036352079666886 0.1940147018273702 -0.09000000000000001  0.05357568053111258 0.1293431345515802 -0.09000000000000001  0.02731264508225797 0.1373099392564523 -0.09000000000000001  0.04096896762338696 0.2059649088846784 -0.09000000000000001  0.08036352079666886 0.1940147018273702 -0.02  0.0732838772979147 0.1769229304759114 -0.02  0.06065532402986673 0.1464349059030389 -0.02  0.05357568053111258 0.1293431345515802 -0.02  0.04096896762338696 0.2059649088846784 -0.02  0.02731264508225797 0.1373099392564523 -0.02  0.05172558837745448 0.1679931948234991 -0.02  0.0732838772979147 0.1769229304759114 -0.006  0.07058595909974082 0.1704095797717068 -0.006  0.06335324222804062 0.1529482566072435 -0.006  0.06065532402986673 0.1464349059030389 -0.006  0.05172558837745448 0.1679931948234991 -0.006  0.05823893908165905 0.1652952766253253 -0.006  0.07058595909974082 0.1704095797717068 0  0.06335324222804062 0.1529482566072435 0  0.05823893908165905 0.1652952766253253 0  0.06008129888131911 0.145049086604272 0  0.05033976907868755 0.1685672199720468 0  0.07385790244646233 0.1783087497746783 0  0.07385790244646233 0.1783087497746783 0.006  0.06008129888131911 0.145049086604272 0.006  0.05033976907868755 0.1685672199720468 0.006  0.07653668647301798 0.1847759065022574 0  0.05740251485476347 0.138581929876693 0  0.02926354830241925 0.1471177920604846 0  0.03901806440322567 0.1961570560806461 0  0.07653668647301798 0.1847759065022574 0.241  0.05740251485476347 0.138581929876693 0.241  0.03901806440322567 0.1961570560806461 0.241  0.02926354830241925 0.1471177920604846 0.241  0.08221361295032695 0.1553646415554512 -0.02  0.08221361295032695 0.1553646415554512 -0.006  0.07570026224612236 0.1580625597536251 -0.006  0.07570026224612236 0.1580625597536251 0  0.08359943224909387 0.1547906164069036 0  0.08359943224909387 0.1547906164069036 0.006  1.285879139104721e-17 0.21 -0.09000000000000001  8.572527594031473e-18 0.14 -0.09000000000000001  -0.02731264508225795 0.1373099392564523 -0.09000000000000001  -0.04096896762338691 0.2059649088846784 -0.09000000000000001  1.285879139104721e-17 0.21 -0.02  1.172599310183591e-17 0.1915 -0.02  9.705325883242773e-18 0.1585 -0.02  8.572527594031473e-18 0.14 -0.02  -0.04096896762338691 0.2059649088846784 -0.02  -0.02731264508225795 0.1373099392564523 -0.02  -0.01649999999999999 0.175 -0.02  1.172599310183591e-17 0.1915 -0.006  1.129430510513647e-17 0.18445 -0.006  1.013701387994221e-17 0.16555 -0.006  9.705325883242773e-18 0.1585 -0.006  -0.01649999999999999 0.175 -0.006  -0.00944999999999999 0.175 -0.006  1.129430510513647e-17 0.18445 0  1.013701387994221e-17 0.16555 0  -0.00944999999999999 0.175 0  9.613477373306723e-18 0.157 0  -0.01799999999999999 0.175 0  1.181784161177196e-17 0.193 0  1.181784161177196e-17 0.193 0.006  9.613477373306723e-18 0.157 0.006  -0.01799999999999999 0.175 0.006  1.224646799147353e-17 0.2 0  9.184850993605149e-18 0.15 0  -0.02926354830241923 0.1471177920604846 0  -0.03901806440322564 0.1961570560806461 0  1.224646799147353e-17 0.2 0.241  9.184850993605149e-18 0.15 0.241  -0.03901806440322564 0.1961570560806461 0.241  -0.02926354830241923 0.1471177920604846 0.241  0.01650000000000001 0.175 -0.02  0.01650000000000001 0.175 -0.006  0.00945000000000001 0.175 -0.006  0.00945000000000001 0.175 0  0.01800000000000001 0.175 0  0.01800000000000001 0.175 0.006  -0.08036352079666884 0.1940147018273702 -0.09000000000000001  -0.05357568053111256 0.1293431345515802 -0.09000000000000001  -0.07777983262274431 0.1164057457223563 -0.09000000000000001  -0.1166697489341164 0.1746086185835345 -0.09000000000000001  -0.08036352079666884 0.1940147018273702 -0.02  -0.07328387729791469 0.1769229304759114 -0.02  -0.06065532402986671 0.1464349059030389 -0.02  -0.05357568053111256 0.1293431345515802 -0.02  -0.1166697489341164 0.1746086185835345 -0.02  -0.07777983262274431 0.1164057457223563 -0.02  -0.08221361295032693 0.1553646415554512 -0.02  -0.07328387729791469 0.1769229304759114 -0.006  -0.0705859590997408 0.1704095797717068 -0.006  -0.06335324222804059 0.1529482566072435 -0.006  -0.06065532402986671 0.1464349059030389 -0.006  -0.08221361295032693 0.1553646415554512 -0.006  -0.07570026224612236 0.1580625597536251 -0.006  -0.0705859590997408 0.1704095797717068 0  -0.06335324222804059 0.1529482566072435 0  -0.07570026224612236 0.1580625597536251 0  -0.06008129888131909 0.145049086604272 0  -0.08359943224909386 0.1547906164069036 0  -0.07385790244646231 0.1783087497746783 0  -0.07385790244646231 0.1783087497746783 0.006  -0.06008129888131909 0.145049086604272 0.006  -0.08359943224909386 0.1547906164069036 0.006  -0.07653668647301795 0.1847759065022574 0  -0.05740251485476346 0.138581929876693 0  -0.08333553495294033 0.1247204418453818 0  -0.1111140466039204 0.1662939224605091 0  
[...]
<PointData  Scalars="f_542-0"> 
<DataArray  type="Float64"  Name="f_542-0"  format="ascii">-3.3387999486799025e+01  -2.8756600592920329e+01  -3.3036140611778400e+01  -3.5699447248255545e+01  -2.7364629913467031e+01  -2.3050033260675548e+01  -2.9421010023545342e+01  -3.2050677254583348e+01  -1.8527931261272123e+01  -1.9590469335997554e+01  -1.0896831676524847e+01  -1.0844655737870039e+00  1.1645106973927534e+01  -2.6655297594443783e-01  -1.5198390409661466e+00  -6.5553198123598633e-01  -1.9732624001474353e+00  -1.2043179336632890e+00  -1.3788301426793286e+00  -1.0820051952218543e+00  -1.3762507722574417e+00  -2.4461357769719587e+00  -1.2865456910863950e+00  -1.4049922243705302e+00  -1.5166077017499615e+00  -1.5371008694640733e+00  -1.6799067756196202e+00  -8.3131962308531593e-01  -1.6837729807769197e+00  -2.6732329368881209e+00  1.0384320562366647e+00  3.8158066376299371e-01  2.4601454681740942e-01  7.9143825054350847e-01  -3.3812806086675025e+01  -3.4667838814788510e+01  -3.9728171301218218e+01  -3.8774930120968051e+01  9.8688058568931432e+00  6.0658864281601623e+00  1.1792951900954565e+00  -1.3627190542068937e+00  -1.4186543361799382e+00  -1.4810351937321693e+00  -1.6637956871471851e+00  -1.5609443682511077e+00  3.0744789408572437e-01  5.9215878530936805e-01  -3.3204337638974110e+01  -3.2403953358098256e+01  -2.7157249259662883e+01  -2.9729433586474720e+01  -3.3172115462029240e+01  -3.0318185528063616e+01  -2.2964579864987318e+01  -2.9513549561704934e+01  -2.9544416856559433e+01  -2.8018597169596699e+01  -2.5221441525610114e+01  -1.9738428282045813e+01  -1.5938343310301377e+01  -1.4259729070368232e+01  -1.5655826742496549e+01  -1.6670677819647914e+01  -1.4067688544385483e+01  -4.6855995143869071e+00  -4.7192389198260498e+00  -4.1823633148901411e+00  -2.4319577910781733e+00  -3.1240769256475232e+00  -2.3790497062564322e+00  -2.6951433330965053e+00  -2.3310395747607453e+00  -2.7874901310933380e+00  -3.5810433560644928e+00  -2.1102575966649102e+00  -2.6049223778410813e+00  -1.9467969558344425e+00  5.4415399755666805e-01  6.0333410800185105e-01  6.2687450085193541e-01  3.4744556855863445e-01  -2.6904891372465418e+01  -1.7161992269751163e+01  -1.5269682194193544e+01  -5.1082179251175983e+00  -2.7936125727509058e+00  -3.0748423058203223e+00  -2.4460996245392749e+01  -2.3725064111707120e+01  -1.4961383324071967e+01  -1.9079171891313511e+01  -2.1940306671558627e+01  -1.8473008460253066e+01  -1.9037981125771797e+01  -2.1542559611133484e+01  -1.6830104987409211e+01  -1.6121489284041910e+01  -1.9134367385837471e+01  -1.5770823724150851e+01  -1.3086184911953589e+01  -1.5392380412960495e+01  -1.6449958187955978e+01  -1.4943792660701362e+01  -1.1487479846539381e+01  -3.7285856485852844e+00  -5.0050434722999020e+00  -4.1671535808276010e+00  -2.4589744673763461e+00  -1.6959916337150625e+00  -2.2511615734437571e+00  -2.4572185183594799e+00  -3.1728112579913210e+00  -1.9242169118813588e+00  -2.5280092272714967e+00  -2.7410743816537080e+00  -1.3117490147887592e+00  -1.9795973532675890e+00  1.9437477464840550e-01  3.3750564917168663e-01  2.2390525928323776e-01  4.2488000725730635e-01  -2.1658895888277186e+01  -1.7580483687806836e+01  -1.4362449995505449e+01  -4.8497999426664613e+00  -2.8546073750108141e+00  -2.9786604758681401e+00  -9.0060635222692991e+00  -8.0029414543486919e+00  2.7945082262097398e+00  1.0738759026796150e+00  -6.6034934511474521e+00  -7.7464565744762037e+00  -7.9214846575766211e+00  -6.0722244137847339e+00  -5.4725543302735447e-01  1.8343055962960042e+00  -3.5000400869729003e+00  -9.3825397072035255e+00  -5.9673095985511475e+00  -8.3781279540719709e+00  -9.9823772406554703e+00  -7.8897783547161273e+00  -8.0895512910134730e+00  -2.8194203473185393e+00  -2.4605688494324025e+00  -2.4724905988259192e+00  -8.8354741638633982e-01  -1.3424469493819593e+00  -1.6537078197754078e+00  -1.4460720794046029e+00  -8.5577251556257627e-01  -1.6222594539571036e+00  -1.4408198189549806e+00  -6.6041283170885667e-01  -5.2153690235227390e-01  -3.7215787733421180e-01  6.8347165201781279e-01  3.8961709624187058e-01  7.1306085365609551e-01  3.3931463210425283e-01  -8.5650140149242411e+00  -1.1026355250245444e+01  -9.1141982748169497e+00  -3.1504005742995336e+00  -2.0723792418683948e+00  -2.1851384240989349e+00  1.3804491600465031e+01  1.3826917870757791e+01  2.1186067755003375e+01  2.3535406607381866e+01  1.5328185444686353e+01  9.0385350848297676e+00  1.1666785087373505e+01  1.2933994051722340e+01  2.0293143935967926e+01  2.2584999884120240e+01  1.7841469638777735e+01  5.0007860858660236e-01  1.3148959619229044e+00  -8.6095672865723827e-01  -1.9402521596983460e+00  3.6475002617899654e-01  -1.5260124271254909e+00  -2.6640690457015964e-01  4.5870964330839137e-01  8.5841013870395319e-02  1.5921683753179017e+00  -1.3043062908155159e-01  -3.9213445834506372e-01  -1.4873275717482509e-01  6.9521651693226161e-01  1.8108746573520282e-01  8.0960161073024917e-01  1.6813913388499706e+00  7.9619779227247112e-01  1.1476059900881477e+00  3.0635626484230438e-01  1.3344914621737414e-02  9.5284193111659321e-01  5.8893457726169618e-01  5.0309447664733842e+00  -2.6241230098687192e+00  -3.5031125276749192e-01  -7.8231514816388084e-02  -3.0023869386261975e-01  -5.3829212081129807e-01  3.3138725442205690e+01  2.8622292356779354e+01  4.2795400188580679e+01  3.6141260590062814e+01  2.6961206433812919e+01  3.0225895375519620e+01  2.6244858320131016e+01  3.0415101444513819e+01  1.7549678739356235e+01  8.4299419443210581e+00  1.4057892637733376e+01  1.5640611307482947e+01  8.2659966026081619e+00  1.4403561023741471e+01  1.8628452595361907e+01  1.9541739188352608e+01  1.4216418451084778e+01  2.3145430059627929e+00  4.0019214043792930e+00  2.5675471610034983e+00  1.9031377303784827e+00  1.8519700079726329e+00  1.7781180782318324e+00  2.5465381192050089e+00  1.8563520872143096e+00  1.4886400607634391e+00  1.5570781630938080e+00  1.6979509666707051e+00  1.8661479938664183e+00  1.9843365901083645e+00  4.3715865344333787e-01  3.3652078623814985e-01  6.4001257493282637e-01  9.4519015521378269e-01  8.9962676156171923e+00  3.5157339154169847e+01  1.4987415012004311e+01  2.8072746845603138e+00  2.1105155337070989e+00  1.6836440122558254e+00  3.0588842692878824e+01  3.2060722546851061e+01  3.1270134172627309e+01  3.4295095590777194e+01  3.0166870549991373e+01  2.4168761703940685e+01  2.5327966309500734e+01  2.7820366154601427e+01  2.9753401778069549e+01  2.9753401778069549e+01  2.5929348614730280e+01  1.9200968755670569e+01  9.4097363875390112e+00  1.0636741379012781e+01  7.2253860269442951e+00  8.2110987697549351e+00  6.5030968098654629e+00  2.2123379549099522e+00  2.2470091085178496e+00  1.6162390833319764e+00  1.7886877960105065e+00  1.5230532773291479e+00  1.2352504253972159e+00  1.2125662180622654e+00  1.7148358662697061e+00  1.3173506395369927e+00  1.9259523314722931e+00  1.7419021528463332e+00  1.4109219258653392e+00  5.9700592693893217e-01  6.7310553199896883e-01  9.6628683149684202e-01  4.7748406518342068e-01  4.2993439480940004e-01  3.0560747508608969e+01  8.4920734162576927e+00  7.5403741573095919e+00  2.1972586146062723e+00  1.5898162141230556e+00  1.8759439005185263e+00  2.8651680076735680e+01  3.5834254255627712e+01  2.5380029685365418e+01  2.6058486708125358e+01  1.8214212862789054e+01  2.3713274848421889e+01  1.9897725056048252e+01  2.6257488683771669e+01  2.3427402248593076e+01  2.3597016504283062e+01  1.7007321259654940e+01  -2.5220369506726152e+00  -2.4715154961100025e+00  -4.2047781832807800e+00  -1.0320687294772362e+01  -5.4271346070440929e+00  -3.3938270351017783e+00  -1.8038861281709242e+00  1.5658423215771617e+00  1.1088442338582456e-02  1.0307070790571444e+00  2.0858982237934987e+00  -2.4825982374975237e+00  -2.1181089988362465e+00  1.0345732842144439e+00  1.0438533167821751e+00  -3.5752949928303202e+00  1.2110185958091333e+00  2.3729272645988648e+00  1.6038638062579813e+00  8.6679114978931560e-01  4.2187390140786130e-01  1.0119985590620773e+00  1.0143801644991712e+00  2.6389211848539695e+01  -9.4922078296266523e+00  -7.5192176188990594e+00  -3.0275293866696495e+00  -4.6063419446044918e-01  -4.2312858386400698e-01  1.9941285060947301e+01  2.2537312886546172e+01  1.8587205472415963e+01  1.0908418890094625e+01  1.8494665934256371e+01  1.7669020926099204e+01  1.8888542892873975e+01  1.8033510164760486e+01  1.5200589272593344e+01  1.5494965243387796e+01  1.6235032163048928e+01  8.5253159394691949e+00  6.3211015761504203e+00  7.1439121273190409e+00  9.9845654298007780e+00  1.3788255819184796e+01  7.4529819580916508e+00  2.7165378552205124e+00  3.1254941541417955e+00  2.7813676894357702e+00  1.9756999749083397e+00  1.6532911662479406e+00  2.5732160749805879e+00  2.3767934697561643e+00  2.5176662733330613e+00  2.4472298715446130e+00  2.2627290157137057e+00  3.9118127657886240e-04  2.4474226117073719e+00  9.7715272639216644e-01  6.7134425580679868e-01  7.7075315818725354e-01  7.2721197195246901e-01  2.6728189237367717e-01  1.9058157148563961e+01  1.1012046870592798e+01  9.5458359305976526e+00  3.2395586081842538e+00  2.0624402053319826e+00  1.5998672073418223e+00  8.8450773303527477e+00  1.3926418858580949e+01  9.9931311471703133e+00  8.4694373029489878e+00  1.1578497234696730e+01  1.0820131037417850e+01  1.1442522384445887e+01  1.6830870247109186e+01  8.4974701408149400e+00  9.3504393725909214e+00  9.4099857731546077e+00  9.5115502573152728e+00  5.9714308902751041e+00  6.3863168906911962e+00  8.3193525141593199e+00  8.7209618830915225e+00  3.6206748094023435e+00  1.9760854552338574e+00  3.4593088381113346e+00  2.6245765375491974e+00  2.9026486797084505e+00  1.9319415288954702e+00  2.4269294439932598e+00  2.6513848870836356e+00  2.4992989483603578e+00  1.8022818604649542e+00  2.1868787865148254e+00  2.7374165032601421e+00  2.5481792610639902e+00  1.7564627685901060e+00  7.0613350133292041e-01  1.0433589885626404e+00  9.8018174180616058e-01  3.9989487312832145e-01  1.5483752108241411e+01  1.1070300735470012e+01  8.6936376594727065e+00  4.2564051343181699e+00  2.6196785842231427e+00  2.8951090095566103e+00  7.1490127064577678e+00  9.7434480983257004e+00  2.9793322159622648e+00  3.6463833634130669e+00  6.7261918139387085e+00  8.7639767890293658e+00  6.1124050067583378e+00  5.7447893503888467e+00  3.5179082766566366e-01  4.1713372189554585e+00  3.3274864527863990e+00  5.7867996406853379e+00  4.4989359416615811e+00  4.4148374280637244e+00  5.4314600408329321e+00  6.4392873219168365e+00  6.1053422441884377e+00  2.4272993377178023e+00  3.1111701878881752e+00  1.2908285497711618e+00  2.1228539366280832e+00  1.4821643581570163e+00  1.4236458091118411e+00  2.1241670017404890e+00  2.3612372218705433e+00  1.1657242174938629e+00  2.1641137956994707e+00  1.8633574462052671e+00  9.7544353717822518e-01  5.1198477137914467e-01  4.4247199102583384e-01  8.0198695470840542e-01  9.5276980504255537e-01  1.0142406840043088e+00  -1.8116922867915448e+00  -1.7206323235301251e+00  3.8155809655755850e+00  2.1052448361809710e+00  2.4532219194433207e+00  2.0936773939110220e+00  -9.9655179953362460e-01  1.2939888091279678e-01  -2.5980913219363773e+00  -3.1113332711011937e-01  -4.4066260178177590e+00  -6.8915542401215726e+00  -3.3279768546198878e+00  -2.7595876869862459e+00  -2.2013799063302293e+00  -2.3563003020420523e+00  -6.6809536490033627e+00  -7.7968519109932526e+00  -5.9001597561939567e+00  -6.5952451667484748e+00  -1.0637637032471615e+01  -9.1697495017022419e+00  -7.6340701364457360e+00  -1.3424157761800097e+00  -4.3254328590389379e-01  -1.6467166221476597e+00  2.7194970050168554e-01  -2.6096261657666109e-01  1.0990771340325528e-01  4.0041747904040303e-01  4.7694372404670443e-01  -4.0866647605826206e-01  3.5740167095214992e-01  2.0544470074996640e-01  6.7534846312539110e-01  -6.2168273278090092e-01  5.3469139973797908e-01  8.6629958249707140e-01  5.5155403460867447e-01  1.0702774190508777e+00  -2.2507477703918202e+00  -9.0144422004271352e+00  -7.2556579984573313e+00  -1.4375984564031528e+00  -3.1319397297209818e-02  3.5092492217101406e-01  -5.5060234352963988e+00  -3.2842807550109177e+00  -2.5890663759353041e+00  -1.9778881640536479e+00  -5.7135287819083453e+00  2.9360501014341184e-01  2.3660962086941608e+00  -1.3667099521719914e+00  1.9591813304216915e-02  -6.9456811123237658e+00  1.9371626161431430e+00  2.0366636039662982e+00  9.6819582774605373e-01  -5.6477804904300077e-01  -1.3636147076657272e+00  -2.5119916584049102e+00  -1.5775485270036749e-01  -1.8005357970980021e-01  -1.8450057078335382e+00  -5.8952575271546059e-01  1.8045616288850170e-02  -1.9978668829211477e+00  8.9208766150498509e-01  5.3378321090517478e-01  -4.0618418833663744e-01  -8.8976765336305230e-01  -1.4995867074410396e-01  4.1926807965776886e-01  -3.4870413458599125e-01  4.4523742118621157e-01  8.7355141006090653e-01  5.1496585704730469e-01  9.2290640299081106e-01  6.6157314281157464e-01  -4.3867734169958217e+00  2.3509035774848044e-01  -7.0371775004124804e-01  -4.8963928456678757e-01  -7.2769164258714181e-01  3.5836893486035748e-01  -1.2883472597159727e+01  -8.2743631507483290e-02  -1.0863566349509101e+01  -1.6954214733719379e+01  -3.2577274920431369e+00  1.1690005122121545e+00  -3.0306303321269752e+00  -4.6888817981048687e+00  -8.8591249224876734e+00  -8.8534560085105838e+00  -7.5269728330179031e-01  6.2223715489783009e+00  5.2070217005957398e-01  -3.7145068832484096e-01  3.4139404234414337e+00  2.1167519091770036e+01  1.5592153349257842e+01  -7.8491946024666054e-02  -5.1670557114341487e-01  1.2476171510446191e-01  -1.5118372917072362e+00  -1.0290290630451526e+00  -3.0442981448874445e-01  5.6967030141799394e-02  -6.5371216956301226e-01  -1.3975149006225891e+00  -8.4742786108222046e-01  -2.2696961663283308e-01  -1.0845788646926797e+00  -1.5383877041994862e+00  7.3245087965623956e-01  6.4121415262655113e-01  9.6194188305652378e-02  3.8046437616420614e-01  -7.7383101790807807e-01  -3.2943260472786229e-01  5.9081543792640401e-01  5.6065675731904324e-02  8.1056566785348472e-01  8.0811669119045759e-01  -2.0689855351574074e+01  -2.6944449077497243e+01  -2.2169989190896349e+01  -2.3072708916583906e+01  -2.2116882664960787e+01  -1.6498727878200580e+01  -1.1926104424234536e+01  -1.7657570535354905e-01  -1.9487090741114976e+01  -1.7586277294591724e+01  -1.4557188883766818e+01  -9.7716405548273411e+00  -7.1573134516107295e+00  -7.1124609110252059e+00  -9.1926845198905536e+00  -9.9482162601808888e+00  -6.2545937259231712e+00  -1.9273667094910347e+00  -1.9273667094910347e+00  -1.4097597839377247e+00  -2.2622131416293283e+00  -1.5389035782838636e+00  -1.4433991893768674e+00  -2.0843506015403666e+00  -2.6058237322509759e+00  -1.5111938743395299e+00  -1.0300608112139076e+00  -1.5660974081438197e+00  -1.5423843031156454e+00  -3.1461405194190128e-01  7.4917322769657069e-02  4.4164475970658418e-01  9.2010278834741929e-02  7.8900298734832297e-01  -4.9729402872117694e+00  -7.3733221691883095e+00  -6.9709418396050724e+00  -2.2529331090615976e+00  -1.3575603133631200e+00  -1.0227138812248262e+00  -2.9456191350286559e+01  -2.7945127869705885e+01  -2.7769844700038814e+01  -2.1554434600724075e+01  -2.3146949177125755e+01  -2.9388912539408274e+01  -2.6204132772220511e+01  -2.2144728463615042e+01  -1.3051544931547642e+01  -1.2914152852802527e+01  -1.6947003898440215e+01  -1.5948910177604521e+01  -1.1061026403853342e+01  -2.0815161445518218e+00  -2.5128987137658667e+00  -2.6176831352405938e+00  -2.0181035388308364e+00  -1.2411772764164941e+00  -1.3391306419865174e+00  -1.8348271713314426e+00  -1.5380022238739683e+00  -1.9450254202166020e+00  -1.2138530527976781e+00  -2.1009775640971791e+00  8.9179334323272008e-01  4.4580017931595123e-01  -2.5790664000298690e+01  -1.5932152821288849e+01  -1.2530071800837032e+01  -2.3920032038187040e+00  -2.2506145261574297e+00  -1.6340224868653421e+00  8.0798244990949826e+01  -2.1962234458668807e+01  -2.0224073818171973e+01  6.7895579399113504e-01  1.7940788196166935e+00  -2.7711984324758143e-01  7.4546364421838474e-01  -8.2023688169779496e-01  -1.3364265787568324e+00  -2.1692881231442191e+00  -1.8675652223606904e+00  -7.7435259294351655e-01  -1.4230364154216151e+00  -2.0596057483434378e+00  -1.1809222616056718e+00  -5.6632709653389812e-01  -9.2160292474463945e-01  2.1987919844817508e-01  -8.5651515348719276e-01  3.0835979128770841e-01  -6.8934987446023455e-01  -1.6748841294857678e-01  2.5936921398415160e+00  -1.6091721784711130e+01  1.0728327526087376e+00  2.2699284490907434e+00  2.2116745842135312e+00  1.8871399328117235e+00  -6.0821906208531318e-01  -1.3003381966546623e+00  -1.4854172729738460e+00  -1.2422090245852488e+00  -1.2485242064055755e+00  -1.3089719613791566e+00  -1.4624099317172772e+00  1.1899358057046221e-01  -4.7900722038421389e-01  -9.3153207563113821e-02  3.2458338833471498e+00  -2.2230057166495470e+01  -2.7830037368445737e+01  -1.7808227115566233e+01  -1.6850087981990011e+01  -1.4528844313881372e+01  -1.4965510316746988e+01  -4.7704066422319000e+00  -4.3041601792471988e+00  -2.4482616197133673e+00  -2.8791283148430349e+00  -3.7809466861206991e+00  -2.9059366643774736e+00  -2.5779212881438838e+00  -5.2178067803125305e-01  -1.6099522242380688e+00  -8.0850502199150587e-01  -1.3634616921315099e-01  -1.2827418323329944e+00  -3.4691416189164537e-01  -1.0780057458301644e+00  1.5289092305179350e-01  -2.7109562262088815e+01  -2.7967429447190852e+01  -1.9596138249974647e+01  -1.6760382900818961e+01  -1.4336803787898624e+01  -1.5738570374004031e+01  -4.8040460476710427e+00  -3.9593251002940377e+00  -3.0828978500565403e+00  -2.7543665997385727e+00  -3.2425234589316578e+00  -2.5735392089022064e+00  -2.2055567761283676e+01  -1.8330471206927879e+01  -1.9170825661664182e+01  -1.6931476731407116e+01  -1.4219774483108763e+01  -1.2370899719642393e+01  -1.6245703951860044e+01  -3.4811724745167942e+00  -3.4140708172002934e+00  -2.8810770040226594e+00  -2.1032883537008593e+00  -2.9415091723952655e+00  -1.8525482284609092e+00  -2.4787746074442962e+00  -6.0997073538888280e-01  -7.1486853878372969e-01  -4.7140235335294384e-01  1.1429758594541957e-01  -1.1574837263953739e+00  -2.5708933073775687e-02  -8.9763682549923318e-01  -5.4803471006623394e-01  -2.3235159096797656e+01  -2.1110822734795867e+01  -1.6501125910361829e+01  -1.5851410339714977e+01  -1.3805597096939806e+01  -1.0991944884155266e+01  -3.4441983246057046e+00  -3.9230751512310587e+00  -3.0198395514591230e+00  -2.6278801088191948e+00  -2.6164898201110303e+00  -2.7009426408324546e+00  -3.2820131894200813e+01  -4.3978618593344052e+00  -5.8167712820810014e+00  -9.0244931936459025e+00  -8.7413303579978354e+00  -7.9316660445542455e+00  -8.8128608543589380e+00  -2.7474051500750094e+00  -2.9912256426293635e+00  -1.3873320884071978e+00  -1.0610882477914485e+00  -2.2524172349772202e+00  -1.2909249198525412e+00  -1.3216320729839941e+00  -2.8740035976767414e-01  9.6923042639033924e-02  -2.1517541052264502e-01  -4.6528770499586342e-01  -6.3475664743767521e-02  5.3370242742477014e-01  -2.2248902945312879e-01  3.5152157973579601e-01  -1.0637376957572778e+01  -1.0931752215748343e+01  -1.1194036403356780e+01  -1.1394971481581742e+01  -1.2180661902479436e+01  -8.7061433303055615e+00  -2.0544158342977141e+00  -2.6223854979283585e+00  -1.3422542092192005e+00  -1.1274331058201235e+00  -1.9372901594264722e+00  -1.0997545750777395e+00  -8.1666452461543656e+01  1.2988642498959972e+01  1.6268025300644837e+01  3.7250737505515530e+00  -1.6121063897058963e+00  -2.0201584837417537e+00  -1.8407511718751903e+00  5.4802710629727247e-01  3.7003559768721656e-01  5.3449431931840019e-01  1.0556453850357150e+00  -5.5805600833067605e-02  5.4525570833150960e-01  9.4119509435829773e-01  6.2857916371975542e-01  3.8147264619830579e-01  4.0425304545991497e-01  2.0277091994862750e-01  7.6816424178763643e-01  1.0350543329250981e+00  7.8762637395187618e-01  5.5279404232294482e-01  7.7468363538506599e+00  7.1356581419690039e+00  -2.3220146287596726e+00  -5.3126903736271780e+00  -3.2298873943399435e+00  -2.5813339656207051e+00  1.0942586299635818e-01  -5.2325588620168430e-02  1.0755795729713820e-01  3