<?xml version="1.0"?>
<VTKFile type="UnstructuredGrid"  version="0.1"  >
<UnstructuredGrid>
<Piece  NumberOfPoints="1969" NumberOfCells="6911">
<Points>
<DataArray  type="Float64"  NumberOfComponents="3"  format="ascii">0.14 0 -0.09000000000000001  0.21 0 -0.09000000000000001  0.1373099392564523 0.02731264508225796 -0.09000000000000001  0.2059649088846784 0.04096896762338693 -0.09000000000000001  0.14 0 -0.02  0.21 0 -0.02  0.1373099392564523 0.02731264508225796 -0.02  0.2059649088846784 0.04096896762338693 -0.02  0.1915 0 -0.02  0.175 0.0165 -0.02  0.1585 0 -0.02  0.1915 0 -0.006  0.175 0.0165 -0.006  0.1585 0 -0.006  0.18445 0 -0.006  0.175 0.00945 -0.006  0.16555 0 -0.006  0.18445 0 0  0.175 0.00945 0  0.16555 0 0  0.193 0 0  0.175 0.018 0  0.157 0 0  0.193 0 0.006  0.175 0.018 0.006  0.157 0 0.006  0.15 0 0  0.2 0 0  0.1471177920604846 0.02926354830241924 0  0.1961570560806461 0.03901806440322565 0  0.15 0 0.241  0.2 0 0.241  0.1471177920604846 0.02926354830241924 0.241  0.1961570560806461 0.03901806440322565 0.241  0.1373099392564523 -0.02731264508225796 -0.09000000000000001  0.2059649088846784 -0.04096896762338693 -0.09000000000000001  0.2059649088846784 -0.04096896762338693 -0.02  0.1373099392564523 -0.02731264508225796 -0.02  0.175 -0.0165 -0.02  0.175 -0.0165 -0.006  0.175 -0.00945 -0.006  0.175 -0.00945 0  0.175 -0.018 0  0.175 -0.018 0.006  0.1471177920604846 -0.02926354830241924 0  0.1961570560806461 -0.03901806440322565 0  0.1961570560806461 -0.03901806440322565 0.241  0.1471177920604846 -0.02926354830241924 0.241  0.1940147018273702 0.08036352079666885 -0.09000000000000001  0.1293431345515802 0.05357568053111257 -0.09000000000000001  0.1164057457223563 0.07777983262274432 -0.09000000000000001  0.1746086185835345 0.1166697489341165 -0.09000000000000001  0.1940147018273702 0.08036352079666885 -0.02  0.1769229304759114 0.07328387729791469 -0.02  0.1464349059030389 0.06065532402986672 -0.02  0.1293431345515802 0.05357568053111257 -0.02  0.1746086185835345 0.1166697489341165 -0.02  0.1164057457223563 0.07777983262274432 -0.02  0.1553646415554512 0.08221361295032695 -0.02  0.1769229304759114 0.07328387729791469 -0.006  0.1704095797717068 0.07058595909974082 -0.006  0.1529482566072435 0.0633532422280406 -0.006  0.1464349059030389 0.06065532402986672 -0.006  0.1553646415554512 0.08221361295032695 -0.006  0.1580625597536251 0.07570026224612236 -0.006  0.1704095797717068 0.07058595909974082 0  0.1529482566072435 0.0633532422280406 0  0.1580625597536251 0.07570026224612236 0  0.145049086604272 0.0600812988813191 0  0.1547906164069036 0.08359943224909387 0  0.1783087497746783 0.07385790244646231 0  0.1783087497746783 0.07385790244646231 0.006  0.145049086604272 0.0600812988813191 0.006  0.1547906164069036 0.08359943224909387 0.006  0.1847759065022574 0.07653668647301796 0  0.138581929876693 0.05740251485476346 0  0.1247204418453818 0.08333553495294033 0  0.1662939224605091 0.1111140466039204 0  0.1847759065022574 0.07653668647301796 0.241  0.138581929876693 0.05740251485476346 0.241  0.1662939224605091 0.1111140466039204 0.241  0.1247204418453818 0.08333553495294033 0.241  0.1679931948234991 0.05172558837745448 -0.02  0.1679931948234991 0.05172558837745448 -0.006  0.1652952766253253 0.05823893908165905 -0.006  0.1652952766253253 0.05823893908165905 0  0.1685672199720468 0.05033976907868755 0  0.1685672199720468 0.05033976907868755 0.006  0.148492424049175 0.148492424049175 -0.09000000000000001  0.09899494936611666 0.09899494936611665 -0.09000000000000001  0.07777983262274432 0.1164057457223563 -0.09000000000000001  0.1166697489341165 0.1746086185835345 -0.09000000000000001  0.148492424049175 0.148492424049175 -0.02  0.1354109485972239 0.1354109485972238 -0.02  0.1120764248180678 0.1120764248180678 -0.02  0.09899494936611666 0.09899494936611665 -0.02  0.1166697489341165 0.1746086185835345 -0.02  0.07777983262274432 0.1164057457223563 -0.02  0.1120764248180678 0.1354109485972238 -0.02  0.1354109485972239 0.1354109485972238 -0.006  0.1304258457898587 0.1304258457898587 -0.006  0.1170615276254329 0.1170615276254329 -0.006  0.1120764248180678 0.1120764248180678 -0.006  0.1120764248180678 0.1354109485972238 -0.006  0.117061527625433 0.1304258457898587 -0.006  0.1304258457898587 0.1304258457898587 0  0.1170615276254329 0.1170615276254329 0  0.117061527625433 0.1304258457898587 0  0.111015764646288 0.111015764646288 0  0.111015764646288 0.1364716087690037 0  0.1364716087690037 0.1364716087690036 0  0.1364716087690037 0.1364716087690036 0.006  0.111015764646288 0.111015764646288 0.006  0.111015764646288 0.1364716087690037 0.006  0.1414213562373095 0.1414213562373095 0  0.1060660171779821 0.1060660171779821 0  0.08333553495294035 0.1247204418453818 0  0.1111140466039205 0.1662939224605091 0  0.1414213562373095 0.1414213562373095 0.241  0.1060660171779821 0.1060660171779821 0.241  0.1111140466039205 0.1662939224605091 0.241  0.08333553495294035 0.1247204418453818 0.241  0.1354109485972239 0.1120764248180678 -0.02  0.1354109485972239 0.1120764248180678 -0.006  0.1304258457898587 0.1170615276254329 -0.006  0.1304258457898587 0.1170615276254329 0  0.1364716087690037 0.1110157646462879 0  0.1364716087690037 0.1110157646462879 0.006  0.08036352079666886 0.1940147018273702 -0.09000000000000001  0.05357568053111258 0.1293431345515802 -0.09000000000000001  0.02731264508225797 0.1373099392564523 -0.09000000000000001  0.04096896762338696 0.2059649088846784 -0.09000000000000001  0.08036352079666886 0.1940147018273702 -0.02  0.0732838772979147 0.1769229304759114 -0.02  0.06065532402986673 0.1464349059030389 -0.02  0.05357568053111258 0.1293431345515802 -0.02  0.04096896762338696 0.2059649088846784 -0.02  0.02731264508225797 0.1373099392564523 -0.02  0.05172558837745448 0.1679931948234991 -0.02  0.0732838772979147 0.1769229304759114 -0.006  0.07058595909974082 0.1704095797717068 -0.006  0.06335324222804062 0.1529482566072435 -0.006  0.06065532402986673 0.1464349059030389 -0.006  0.05172558837745448 0.1679931948234991 -0.006  0.05823893908165905 0.1652952766253253 -0.006  0.07058595909974082 0.1704095797717068 0  0.06335324222804062 0.1529482566072435 0  0.05823893908165905 0.1652952766253253 0  0.06008129888131911 0.145049086604272 0  0.05033976907868755 0.1685672199720468 0  0.07385790244646233 0.1783087497746783 0  0.07385790244646233 0.1783087497746783 0.006  0.06008129888131911 0.145049086604272 0.006  0.05033976907868755 0.1685672199720468 0.006  0.07653668647301798 0.1847759065022574 0  0.05740251485476347 0.138581929876693 0  0.02926354830241925 0.1471177920604846 0  0.03901806440322567 0.1961570560806461 0  0.07653668647301798 0.1847759065022574 0.241  0.05740251485476347 0.138581929876693 0.241  0.03901806440322567 0.1961570560806461 0.241  0.02926354830241925 0.1471177920604846 0.241  0.08221361295032695 0.1553646415554512 -0.02  0.08221361295032695 0.1553646415554512 -0.006  0.07570026224612236 0.1580625597536251 -0.006  0.07570026224612236 0.1580625597536251 0  0.08359943224909387 0.1547906164069036 0  0.08359943224909387 0.1547906164069036 0.006  1.285879139104721e-17 0.21 -0.09000000000000001  8.572527594031473e-18 0.14 -0.09000000000000001  -0.02731264508225795 0.1373099392564523 -0.09000000000000001  -0.04096896762338691 0.2059649088846784 -0.09000000000000001  1.285879139104721e-17 0.21 -0.02  1.172599310183591e-17 0.1915 -0.02  9.705325883242773e-18 0.1585 -0.02  8.572527594031473e-18 0.14 -0.02  -0.04096896762338691 0.2059649088846784 -0.02  -0.02731264508225795 0.1373099392564523 -0.02  -0.01649999999999999 0.175 -0.02  1.172599310183591e-17 0.1915 -0.006  1.129430510513647e-17 0.18445 -0.006  1.013701387994221e-17 0.16555 -0.006  9.705325883242773e-18 0.1585 -0.006  -0.01649999999999999 0.175 -0.006  -0.00944999999999999 0.175 -0.006  1.129430510513647e-17 0.18445 0  1.013701387994221e-17 0.16555 0  -0.00944999999999999 0.175 0  9.613477373306723e-18 0.157 0  -0.01799999999999999 0.175 0  1.181784161177196e-17 0.193 0  1.181784161177196e-17 0.193 0.006  9.613477373306723e-18 0.157 0.006  -0.01799999999999999 0.175 0.006  1.224646799147353e-17 0.2 0  9.184850993605149e-18 0.15 0  -0.02926354830241923 0.1471177920604846 0  -0.03901806440322564 0.1961570560806461 0  1.224646799147353e-17 0.2 0.241  9.184850993605149e-18 0.15 0.241  -0.03901806440322564 0.1961570560806461 0.241  -0.02926354830241923 0.1471177920604846 0.241  0.01650000000000001 0.175 -0.02  0.01650000000000001 0.175 -0.006  0.00945000000000001 0.175 -0.006  0.00945000000000001 0.175 0  0.01800000000000001 0.175 0  0.01800000000000001 0.175 0.006  -0.08036352079666884 0.1940147018273702 -0.09000000000000001  -0.05357568053111256 0.1293431345515802 -0.09000000000000001  -0.07777983262274431 0.1164057457223563 -0.09000000000000001  -0.1166697489341164 0.1746086185835345 -0.09000000000000001  -0.08036352079666884 0.1940147018273702 -0.02  -0.07328387729791469 0.1769229304759114 -0.02  -0.06065532402986671 0.1464349059030389 -0.02  -0.05357568053111256 0.1293431345515802 -0.02  -0.1166697489341164 0.1746086185835345 -0.02  -0.07777983262274431 0.1164057457223563 -0.02  -0.08221361295032693 0.1553646415554512 -0.02  -0.07328387729791469 0.1769229304759114 -0.006  -0.0705859590997408 0.1704095797717068 -0.006  -0.06335324222804059 0.1529482566072435 -0.006  -0.06065532402986671 0.1464349059030389 -0.006  -0.08221361295032693 0.1553646415554512 -0.006  -0.07570026224612236 0.1580625597536251 -0.006  -0.0705859590997408 0.1704095797717068 0  -0.06335324222804059 0.1529482566072435 0  -0.07570026224612236 0.1580625597536251 0  -0.06008129888131909 0.145049086604272 0  -0.08359943224909386 0.1547906164069036 0  -0.07385790244646231 0.1783087497746783 0  -0.07385790244646231 0.1783087497746783 0.006  -0.06008129888131909 0.145049086604272 0.006  -0.08359943224909386 0.1547906164069036 0.006  -0.07653668647301795 0.1847759065022574 0  -0.05740251485476346 0.138581929876693 0  -0.08333553495294033 0.1247204418453818 0  -0.1111140466039204 0.1662939224605091 0  
[...]
<PointData  Vectors="f_337"> 
<DataArray  type="Float64"  Name="f_337"  NumberOfComponents="3" format="ascii">1.0162547113917045e-03 3.7449876073252999e-04 0.0000000000000000e+00  1.0230280875734128e-03 3.7244881536232079e-04 0.0000000000000000e+00  1.1274416394471797e-03 4.2123085266450267e-04 0.0000000000000000e+00  1.1470895566531678e-03 4.2377527123491911e-04 0.0000000000000000e+00  9.1058743927476557e-04 3.8531741709566338e-04 0.0000000000000000e+00  9.6053968205689691e-04 3.3031145641716596e-04 0.0000000000000000e+00  1.0473911239609474e-03 4.1899558004458162e-04 0.0000000000000000e+00  1.0872152337968370e-03 4.1437460821328509e-04 0.0000000000000000e+00  9.4128875528288851e-04 2.7189693865377725e-04 0.0000000000000000e+00  9.7779427502584448e-04 2.9457971266171821e-04 0.0000000000000000e+00  9.0430100451524846e-04 2.8443245746437187e-04 0.0000000000000000e+00  9.8886588161180571e-04 -6.9077746494621505e-05 0.0000000000000000e+00  1.0699556715303485e-03 -1.4101186866994486e-04 0.0000000000000000e+00  1.0662007483875028e-03 -1.6204752122092798e-04 0.0000000000000000e+00  8.1586765574343282e-04 -5.5000480310031259e-05 0.0000000000000000e+00  9.1159246365155456e-04 -1.3057448745153947e-04 0.0000000000000000e+00  8.7636802824381623e-04 -1.2199272850800286e-04 0.0000000000000000e+00  3.4278078625629265e-04 -7.4699538910345952e-05 0.0000000000000000e+00  3.7040791925025887e-04 -8.6011762280423557e-05 0.0000000000000000e+00  3.6082013763755747e-04 -8.1038347163739249e-05 0.0000000000000000e+00  2.5738758067278794e-04 -6.4307419143141777e-05 0.0000000000000000e+00  2.6227393863779768e-04 -6.7580618915766795e-05 0.0000000000000000e+00  2.5524004047091726e-04 -6.4502858969354046e-05 0.0000000000000000e+00  2.5292199595248522e-04 -6.3691930765072922e-05 0.0000000000000000e+00  2.6071824569275966e-04 -6.7257978515067784e-05 0.0000000000000000e+00  2.5425818776475778e-04 -6.4386412634478672e-05 0.0000000000000000e+00  2.5917894719979081e-04 -6.5450093451664123e-05 0.0000000000000000e+00  2.5861190143876164e-04 -6.4723205442008413e-05 0.0000000000000000e+00  2.6694796868860488e-04 -7.0858292021877293e-05 0.0000000000000000e+00  2.6195209043308743e-04 -6.9864271279632283e-05 0.0000000000000000e+00  -3.8690849808676840e-20 5.0647255582019566e-21 0.0000000000000000e+00  -1.7689002193066869e-20 -1.6843638459743052e-20 0.0000000000000000e+00  -1.4647327877739806e-20 -4.8857191782512190e-21 0.0000000000000000e+00  -2.9866875563993158e-20 1.4470775820050692e-20 0.0000000000000000e+00  8.3927559619328647e-04 3.2751126063075916e-04 0.0000000000000000e+00  8.6158119207845887e-04 3.2252060920040575e-04 0.0000000000000000e+00  8.5997465859253717e-04 2.6912534476450145e-04 0.0000000000000000e+00  7.7547432556009295e-04 3.3018759295712157e-04 0.0000000000000000e+00  8.7688250570214948e-04 2.5441963091294453e-04 0.0000000000000000e+00  1.0399344092308560e-03 -1.5193504331921677e-04 0.0000000000000000e+00  8.9115499005458683e-04 -1.3664768102319687e-04 0.0000000000000000e+00  3.4401364264941209e-04 -8.0229434352735915e-05 0.0000000000000000e+00  2.3574422312926124e-04 -5.8721367745609811e-05 0.0000000000000000e+00  2.3485883077327353e-04 -5.8575025613168122e-05 0.0000000000000000e+00  2.0024667598549442e-04 -4.8538535064338893e-05 0.0000000000000000e+00  1.9674044167332464e-04 -4.8222218264902930e-05 0.0000000000000000e+00  -1.0501468726311504e-20 -1.3499016475861083e-20 0.0000000000000000e+00  -2.4917790574274625e-20 -5.7362802277396833e-22 0.0000000000000000e+00  1.2107176093623551e-03 4.5878974742802320e-04 0.0000000000000000e+00  1.2162277978103784e-03 4.4336418721805770e-04 0.0000000000000000e+00  1.2365456746384323e-03 4.5900535270508840e-04 0.0000000000000000e+00  1.2591074092030651e-03 4.6154087037079164e-04 0.0000000000000000e+00  1.1173633124694484e-03 4.2937492588619849e-04 0.0000000000000000e+00  1.0292159097060397e-03 4.3390316735713962e-04 0.0000000000000000e+00  1.0898083563930028e-03 3.2797012823388420e-04 0.0000000000000000e+00  1.0959436645216604e-03 4.5204532692382556e-04 0.0000000000000000e+00  1.1960264417856328e-03 4.4830680392633266e-04 0.0000000000000000e+00  1.1513371702512030e-03 4.5462554545514384e-04 0.0000000000000000e+00  1.0352954676829101e-03 4.4130824125404480e-04 0.0000000000000000e+00  1.1732533335901546e-03 -8.0978033459300756e-05 0.0000000000000000e+00  9.8411796037816855e-04 -8.3970996082727094e-05 0.0000000000000000e+00  1.0452356512826748e-03 -1.5353555492298956e-04 0.0000000000000000e+00  1.2696720660213133e-03 -1.9907945402275056e-04 0.0000000000000000e+00  1.3018098277231139e-03 -2.2340959338763421e-04 0.0000000000000000e+00  1.1127007558517949e-03 -2.0373370425822259e-04 0.0000000000000000e+00  4.0381332708306700e-04 -9.1860047785591447e-05 0.0000000000000000e+00  4.1699571674765437e-04 -9.7582032130569474e-05 0.0000000000000000e+00  4.3540092225135109e-04 -1.0461584343842941e-04 0.0000000000000000e+00  3.0386986414309650e-04 -8.0004241296934597e-05 0.0000000000000000e+00  3.0080884691002752e-04 -8.0354886230790654e-05 0.0000000000000000e+00  3.0636908001832998e-04 -7.9783274694817489e-05 0.0000000000000000e+00  3.0123310352270455e-04 -7.9064542536980918e-05 0.0000000000000000e+00  3.0290564938074326e-04 -7.9941315465195252e-05 0.0000000000000000e+00  2.9868657700656497e-04 -7.9907124535129394e-05 0.0000000000000000e+00  3.0781344426488962e-04 -8.0256823870220308e-05 0.0000000000000000e+00  3.0870481887931568e-04 -8.1209804426766763e-05 0.0000000000000000e+00  2.9150326429196931e-04 -7.9999452475987103e-05 0.0000000000000000e+00  2.8614551202070927e-04 -7.8864600168049355e-05 0.0000000000000000e+00  -1.6056183204723294e-20 5.5826086274482444e-21 0.0000000000000000e+00  -2.3191295774864423e-20 1.5977890906134233e-20 0.0000000000000000e+00  -2.3818842170341572e-20 -1.6213981923585475e-20 0.0000000000000000e+00  -1.1219982101420288e-20 8.7525665053173422e-21 0.0000000000000000e+00  1.0919448153302138e-03 3.1483164709311602e-04 0.0000000000000000e+00  1.2464582781163359e-03 -1.7738730775184911e-04 0.0000000000000000e+00  1.0649721733007214e-03 -1.6078856446374450e-04 0.0000000000000000e+00  4.1283244305460984e-04 -9.8602540129984808e-05 0.0000000000000000e+00  2.9058912219453287e-04 -7.6444779075078039e-05 0.0000000000000000e+00  2.8910039915053021e-04 -7.6149075459258924e-05 0.0000000000000000e+00  1.2411109694335709e-03 4.4590138650640578e-04 0.0000000000000000e+00  1.2294634210403574e-03 4.4783904031031434e-04 0.0000000000000000e+00  1.1630239517381588e-03 4.2511729769245194e-04 0.0000000000000000e+00  1.1797547573027601e-03 4.2971587645517536e-04 0.0000000000000000e+00  1.1606298888444525e-03 3.9979886232484265e-04 0.0000000000000000e+00  1.1376448398714004e-03 3.2721351255159841e-04 0.0000000000000000e+00  1.0975469409301884e-03 3.3787841614273632e-04 0.0000000000000000e+00  1.1087205873988309e-03 4.5839955504686081e-04 0.0000000000000000e+00  1.1206625359246691e-03 4.1754912397455081e-04 0.0000000000000000e+00  1.0786440489463478e-03 4.2418102166058742e-04 0.0000000000000000e+00  1.1084399058532701e-03 3.2263191780293444e-04 0.0000000000000000e+00  1.1909748027818274e-03 -9.1442246932089098e-05 0.0000000000000000e+00  9.8291882867940607e-04 -7.3756070891881575e-05 0.0000000000000000e+00  1.0578820460158593e-03 -1.5712567534387315e-04 0.0000000000000000e+00  1.2848602757628298e-03 -2.0692962924063037e-04 0.0000000000000000e+00  1.2662769340712459e-03 -1.8868981745645747e-04 0.0000000000000000e+00  1.0833313416141787e-03 -1.7174873257328832e-04 0.0000000000000000e+00  4.0944477631863868e-04 -9.5937449708764286e-05 0.0000000000000000e+00  4.5102741388528792e-04 -1.0683180117759770e-04 0.0000000000000000e+00  4.3599182899590387e-04 -1.0777131040933694e-04 0.0000000000000000e+00  3.0849898595526008e-04 -8.3677380502947596e-05 0.0000000000000000e+00  2.9570368189980303e-04 -8.0925384037711505e-05 0.0000000000000000e+00  3.1028295445368324e-04 -8.3158093492587498e-05 0.0000000000000000e+00  3.0505871331800653e-04 -8.2403477126183957e-05 0.0000000000000000e+00  3.0591395012585435e-04 -8.3200598043215010e-05 0.0000000000000000e+00  2.9349827626483420e-04 -8.0441385483220686e-05 0.0000000000000000e+00  3.1175632843122503e-04 -8.3677589873522225e-05 0.0000000000000000e+00  3.1174222092040832e-04 -8.4522506879763289e-05 0.0000000000000000e+00  2.7304930448796905e-04 -7.6318724670753780e-05 0.0000000000000000e+00  2.6803769241435816e-04 -7.5239787432740610e-05 0.0000000000000000e+00  -7.3225223020656468e-21 -1.4459799355886914e-21 0.0000000000000000e+00  -1.7422971742575149e-20 -2.8474147401458852e-21 0.0000000000000000e+00  -8.4572864837230498e-21 -4.8995930415979252e-21 0.0000000000000000e+00  -1.6122895082612568e-20 1.6829578487180874e-21 0.0000000000000000e+00  1.1364908792610377e-03 3.3480813511766968e-04 0.0000000000000000e+00  1.2739398443519085e-03 -1.8520997764908266e-04 0.0000000000000000e+00  1.0874317218388144e-03 -1.6952687360766654e-04 0.0000000000000000e+00  4.2347993553898622e-04 -1.0537721814468441e-04 0.0000000000000000e+00  3.0278168537236478e-04 -8.2280160495814032e-05 0.0000000000000000e+00  3.0141578062205308e-04 -8.2023827342115685e-05 0.0000000000000000e+00  1.0570920293218754e-03 3.9526937452461034e-04 0.0000000000000000e+00  1.0620907621900490e-03 3.8144898420579341e-04 0.0000000000000000e+00  9.0439416737211106e-04 3.3043872147870464e-04 0.0000000000000000e+00  9.2074243411000738e-04 3.3268180794892823e-04 0.0000000000000000e+00  9.7564072150829360e-04 3.7003740851250847e-04 0.0000000000000000e+00  8.9899909609273006e-04 3.7440658506441600e-04 0.0000000000000000e+00  9.5139897133701798e-04 2.8108442608548902e-04 0.0000000000000000e+00  9.5731745480540282e-04 3.8976100927381736e-04 0.0000000000000000e+00  8.7215202966101264e-04 3.2620316795333771e-04 0.0000000000000000e+00  8.4102875220183376e-04 3.2897697652971872e-04 0.0000000000000000e+00  9.2413491029110049e-04 2.5757035098901209e-04 0.0000000000000000e+00  1.0219960760214329e-03 -7.7759455640991515e-05 0.0000000000000000e+00  8.5764178417419208e-04 -7.9449724421035031e-05 0.0000000000000000e+00  9.1133826952711551e-04 -1.4094309483648999e-04 0.0000000000000000e+00  1.1057464400069752e-03 -1.8190588516869637e-04 0.0000000000000000e+00  1.0768269134571872e-03 -1.6603422076498178e-04 0.0000000000000000e+00  9.2188667865028171e-04 -1.4917315830477917e-04 0.0000000000000000e+00  3.5530062882792595e-04 -8.3663025843063246e-05 0.0000000000000000e+00  3.7360542552551261e-04 -9.0106906960200323e-05 0.0000000000000000e+00  3.5605282090422674e-04 -8.8749829137935556e-05 0.0000000000000000e+00  2.6473826059711825e-04 -7.2470342777818122e-05 0.0000000000000000e+00  2.4620985245836269e-04 -6.7758517150334055e-05 0.0000000000000000e+00  2.6697494216767093e-04 -7.2242452758409530e-05 0.0000000000000000e+00  2.6234431478554742e-04 -7.1562247354804083e-05 0.0000000000000000e+00  2.6367900555106640e-04 -7.2307098026246555e-05 0.0000000000000000e+00  2.4527851346471571e-04 -6.7575391435278074e-05 0.0000000000000000e+00  2.6820514248212070e-04 -7.2665467532140535e-05 0.0000000000000000e+00  2.6875152200989605e-04 -7.3452309123084823e-05 0.0000000000000000e+00  2.1272619327505505e-04 -6.0049776373143333e-05 0.0000000000000000e+00  2.0860448022965288e-04 -5.9171612862833446e-05 0.0000000000000000e+00  -2.1512893830760280e-20 1.8455775704147390e-20 0.0000000000000000e+00  -1.8585212762653425e-20 -6.9389503969425107e-22 0.0000000000000000e+00  -3.2731439137168728e-20 -7.2155688099486661e-21 0.0000000000000000e+00  -1.2639904383594327e-20 8.9134414704245213e-21 0.0000000000000000e+00  9.3334455762763082e-04 3.9280551606094726e-04 0.0000000000000000e+00  1.1413000899044481e-03 -1.9991246134042605e-04 0.0000000000000000e+00  9.7332306918036511e-04 -1.8297410021273993e-04 0.0000000000000000e+00  3.6909962181447161e-04 -9.2701849101742279e-05 0.0000000000000000e+00  2.7011028293084228e-04 -7.4299845551783892e-05 0.0000000000000000e+00  2.6917890101430631e-04 -7.4131431722495588e-05 0.0000000000000000e+00  7.3461837756290328e-04 2.5836380121368883e-04 0.0000000000000000e+00  7.2968203045980790e-04 2.5833035889879179e-04 0.0000000000000000e+00  5.1402316811941830e-04 1.8190347316361918e-04 0.0000000000000000e+00  5.2352839088171468e-04 1.8319028898578681e-04 0.0000000000000000e+00  6.8629834054464783e-04 2.3208436728636191e-04 0.0000000000000000e+00  6.7253972191694202e-04 1.8911829876915379e-04 0.0000000000000000e+00  6.4906194004617440e-04 1.9523836927733980e-04 0.0000000000000000e+00  6.5630010395646015e-04 2.6643930229125517e-04 0.0000000000000000e+00  4.9290532207122123e-04 1.8346275270123553e-04 0.0000000000000000e+00  4.7656771019279851e-04 1.8345162027597775e-04 0.0000000000000000e+00  5.9232767531429821e-04 1.6192587843423718e-04 0.0000000000000000e+00  7.0227415771778839e-04 -5.8227569194943020e-05 0.0000000000000000e+00  5.7944389658354115e-04 -4.7007501867817763e-05 0.0000000000000000e+00  6.2106651975838431e-04 -9.6149071365974318e-05 0.0000000000000000e+00  7.5631487401787447e-04 -1.2664551168837878e-04 0.0000000000000000e+00  7.2746323559263082e-04 -1.2255354824792752e-04 0.0000000000000000e+00  6.2537399508859977e-04 -1.0891804314120787e-04 0.0000000000000000e+00  2.4322984800316056e-04 -5.8237200029954492e-05 0.0000000000000000e+00  2.4918034093294550e-04 -6.1842543727404079e-05 0.0000000000000000e+00  2.3936539457551165e-04 -6.1492901400149387e-05 0.0000000000000000e+00  1.8152409103004810e-04 -5.0342579805539104e-05 0.0000000000000000e+00  1.5799622742028365e-04 -4.3991241260219362e-05 0.0000000000000000e+00  1.8293587491874234e-04 -5.0222251858217178e-05 0.0000000000000000e+00  1.7980773523111452e-04 -4.9753260321775146e-05 0.0000000000000000e+00  1.8100994751811913e-04 -5.0334906235004698e-05 0.0000000000000000e+00  1.5694441227364795e-04 -4.3767570105118593e-05 0.0000000000000000e+00  1.8380487652984215e-04 -5.0534120642211933e-05 0.0000000000000000e+00  1.8445088408520745e-04 -5.1131113177162929e-05 0.0000000000000000e+00  1.2080496682848879e-04 -3.4168980210810647e-05 0.0000000000000000e+00  1.1865319257961110e-04 -3.3783894546008033e-05 0.0000000000000000e+00  -1.2052565339406542e-20 5.5430119471724653e-21 0.0000000000000000e+00  -6.1531357370751395e-22 -5.1310296297250389e-22 0.0000000000000000e+00  -4.3800997875585741e-20 -7.9141646408422797e-21 0.0000000000000000e+00  -1.6126051551879003e-20 -1.5135993048624943e-20 0.0000000000000000e+00  7.3534998851567800e-04 2.1750713567831898e-04 0.0000000000000000e+00  7.6925360937356519e-04 -1.0722761799754457e-04 0.0000000000000000e+00  6.5266711325368280e-04 -1.0009279359516964e-04 0.0000000000000000e+00  2.5817559588265320e-04 -6.5735963262596525e-05 0.0000000000000000e+00  1.9512216543137481e-04 -5.4498656872931630e-05 0.0000000000000000e+00  1.9444933480051394e-04 -5.4390697511624833e-05 0.0000000000000000e+00  2.8471027776769034e-04 1.0100414774129699e-04 0.0000000000000000e+00  2.9108426386019541e-04 9.1288820440752687e-05 0.0000000000000000e+00  4.9801781590009767e-05 2.1873375630732965e-06 0.0000000000000000e+00  5.3883619567926178e-05 -1.8752385653431545e-06 0.0000000000000000e+00  2.6223009015676076e-04 9.5613392706877075e-05 0.0000000000000000e+00  2.1597959206750054e-04 1.2736900417416333e-04 0.0000000000000000e+00  2.3671389691857112e-04 9.5055629267803694e-05 0.0000000000000000e+00  2.5439047008611539e-04 1.0455255372323839e-04 0.0000000000000000e+00  6.7159788266820644e-05 -2.0309896231636775e-05 0.0000000000000000e+00  4.3192829769027518e-05 7.1852591254535805e-06 0.0000000000000000e+00  3.3798453069295979e-04 -1.5266591371046082e-04 0.0000000000000000e+00  2.4933799430680782e-04 7.5795862108968851e-06 0.0000000000000000e+00  2.4409689126112471e-04 -3.8003037114508998e-05 0.0000000000000000e+00  2.1624954192037948e-04 -4.2456964926367014e-06 0.0000000000000000e+00  2.2936348346877240e-04 2.9996897085748082e-05 0.0000000000000000e+00  1.9532312728574039e-04 3.1978100408822347e-05 0.0000000000000000e+00  2.0880931187948547e-04 -1.5614294896967079e-05 0.0000000000000000e+00  9.6974013513370839e-05 -2.3794148055632434e-05 0.0000000000000000e+00  9.8451414849901105e-05 -1.7751251763781467e-05 0.0000000000000000e+00  9.0988406826124184e-05 -2.3483974835076487e-05 0.0000000000000000e+00  7.1580953296306249e-05 -1.9298262248330396e-05 0.0000000000000000e+00  4.7960613187448356e-05 -1.3462743407636969e-05 0.0000000000000000e+00  7.2582305053328779e-05 -1.9912351305033263e-05 0.0000000000000000e+00  7.1330811331581965e-05 -1.9700118471701824e-05 0.0000000000000000e+00  7.1088679477903340e-05 -1.9304822497988514e-05 0.0000000000000000e+00  4.7297415937631279e-05 -1.3298092887230787e-05 0.0000000000000000e+00  7.2881241320085153e-05 -1.9984965277349710e-05 0.0000000000000000e+00  7.2363795139925350e-05 -1.9545927856601495e-05 0.0000000000000000e+00  1.2134678594200764e-05 -4.1750394584864972e-06 0.0000000000000000e+00  1.2121960301194705e-05 -4.2628599107630614e-06 0.0000000000000000e+00  -1.3662508374738388e-20 1.0564968717575132e-20 0.0000000000000000e+00  -9.9537712851378690e-21 6.1641227688732122e-21 0.0000000000000000e+00  -1.9908857565438550e-20 1.5087645351657442e-20 0.0000000000000000e+00  -3.9130335641493336e-20 6.2615859771450599e-21 0.0000000000000000e+00  3.3365883162782804e-04 1.1938677333540832e-04 0.0000000000000000e+00  2.4820620340090354e-04 4.6886802057825393e-05 0.0000000000000000e+00  2.2635424012608927e-04 1.2479005921726427e-05 0.0000000000000000e+00  1.0492164595191611e-04 -2.2165240039150651e-05 0.0000000000000000e+00  9.1726673411480044e-05 -2.5246616158624711e-05 0.0000000000000000e+00  9.1661997034704244e-05 -2.5279552695342509e-05 0.0000000000000000e+00  -1.9191952378065237e-04 -8.9563960111992713e-05 0.0000000000000000e+00  -1.9276165435262802e-04 -8.7178787132261644e-05 0.0000000000000000e+00  -4.2345983409730343e-04 -1.7402201614257330e-04 0.0000000000000000e+00  -4.3168788288234567e-04 -1.7520465131360980e-04 0.0000000000000000e+00  -1.7653138725431296e-04 -8.4240190837897927e-05 0.0000000000000000e+00  -1.7331593316052523e-04 -7.1836377644835116e-05 0.0000000000000000e+00  -1.6863334990446620e-04 -7.0855696248587469e-05 0.0000000000000000e+00  -1.7143085532733354e-04 -8.9013609260068133e-05 0.0000000000000000e+00  -4.0988413187948320e-04 -1.6980141295047245e-04 0.0000000000000000e+00  -3.9516702142236278e-04 -1.7069938399848789e-04 0.0000000000000000e+00  -2.5933960094929578e-04 -1.0284451740356186e-04 0.0000000000000000e+00  -1.8249610794321471e-04 -5.2011222494131613e-06 0.0000000000000000e+00  -1.5037505108173510e-04 -3.9040287564445000e-06 0.0000000000000000e+00  -1.6172701362479646e-04 8.3217766664542845e-06 0.0000000000000000e+00  -1.9732177371687006e-04 1.2021050801240987e-05 0.0000000000000000e+00  -2.2065432571380717e-04 1.5260684929689584e-07 0.0000000000000000e+00  -1.8305884383182499e-04 4.8300099335196164e-06 0.0000000000000000e+00  -6.2459741439952328e-05 1.0954105607539692e-05 0.0000000000000000e+00  -6.4019072904152860e-05 1.1763145373791529e-05 0.0000000000000000e+00  -7.5191909732088996e-05 1.4792958537121092e-05 0.0000000000000000e+00  -4.6229141446394284e-05 1.0984192372376242e-05 0.0000000000000000e+00  -6.7083796966386949e-05 1.7126156955787172e-05 0.0000000000000000e+00  -4.6593990487903223e-05 1.0862819583099066e-05 0.0000000000000000e+00  -4.5773008851631122e-05 1.0840343311211439e-05 0.0000000000000000e+00  -4.6094427442696604e-05 1.0997801916390656e-05 0.0000000000000000e+00  -6.7078877233683735e-05 1.7175596685377961e-05 0.0000000000000000e+00  -4.6825864867996142e-05 1.0924162998076098e-05 0.0000000000000000e+00  -4.6975465448198907e-05 1.1106145176095224e-05 0.0000000000000000e+00  -9.7334806716806136e-05 2.6242079070687312e-05 0.0000000000000000e+00  -9.5412378532675976e-05 2.5889366592859089e-05 0.0000000000000000e+00  -3.2906598788376491e-20 -3.7412201870794828e-21 0.0000000000000000e+00  -3.7347994322367439e-20 -1.2380332695983356e-21 0.0000000000000000e+00  -2.1383848055243072e-20 -1.7979115830481866e-20 0.0000000000