<?xml version="1.0"?>
<VTKFile type="UnstructuredGrid"  version="0.1"  >
<UnstructuredGrid>
<Piece  NumberOfPoints="1969" NumberOfCells="6911">
<Points>
<DataArray  type="Float64"  NumberOfComponents="3"  format="ascii">0.14 0 -0.09000000000000001  0.21 0 -0.09000000000000001  0.1373099392564523 0.02731264508225796 -0.09000000000000001  0.2059649088846784 0.04096896762338693 -0.09000000000000001  0.14 0 -0.02  0.21 0 -0.02  0.1373099392564523 0.02731264508225796 -0.02  0.2059649088846784 0.04096896762338693 -0.02  0.1915 0 -0.02  0.175 0.0165 -0.02  0.1585 0 -0.02  0.1915 0 -0.006  0.175 0.0165 -0.006  0.1585 0 -0.006  0.18445 0 -0.006  0.175 0.00945 -0.006  0.16555 0 -0.006  0.18445 0 0  0.175 0.00945 0  0.16555 0 0  0.193 0 0  0.175 0.018 0  0.157 0 0  0.193 0 0.006  0.175 0.018 0.006  0.157 0 0.006  0.15 0 0  0.2 0 0  0.1471177920604846 0.02926354830241924 0  0.1961570560806461 0.03901806440322565 0  0.15 0 0.241  0.2 0 0.241  0.1471177920604846 0.02926354830241924 0.241  0.1961570560806461 0.03901806440322565 0.241  0.1373099392564523 -0.02731264508225796 -0.09000000000000001  0.2059649088846784 -0.04096896762338693 -0.09000000000000001  0.2059649088846784 -0.04096896762338693 -0.02  0.1373099392564523 -0.02731264508225796 -0.02  0.175 -0.0165 -0.02  0.175 -0.0165 -0.006  0.175 -0.00945 -0.006  0.175 -0.00945 0  0.175 -0.018 0  0.175 -0.018 0.006  0.1471177920604846 -0.02926354830241924 0  0.1961570560806461 -0.03901806440322565 0  0.1961570560806461 -0.03901806440322565 0.241  0.1471177920604846 -0.02926354830241924 0.241  0.1940147018273702 0.08036352079666885 -0.09000000000000001  0.1293431345515802 0.05357568053111257 -0.09000000000000001  0.1164057457223563 0.07777983262274432 -0.09000000000000001  0.1746086185835345 0.1166697489341165 -0.09000000000000001  0.1940147018273702 0.08036352079666885 -0.02  0.1769229304759114 0.07328387729791469 -0.02  0.1464349059030389 0.06065532402986672 -0.02  0.1293431345515802 0.05357568053111257 -0.02  0.1746086185835345 0.1166697489341165 -0.02  0.1164057457223563 0.07777983262274432 -0.02  0.1553646415554512 0.08221361295032695 -0.02  0.1769229304759114 0.07328387729791469 -0.006  0.1704095797717068 0.07058595909974082 -0.006  0.1529482566072435 0.0633532422280406 -0.006  0.1464349059030389 0.06065532402986672 -0.006  0.1553646415554512 0.08221361295032695 -0.006  0.1580625597536251 0.07570026224612236 -0.006  0.1704095797717068 0.07058595909974082 0  0.1529482566072435 0.0633532422280406 0  0.1580625597536251 0.07570026224612236 0  0.145049086604272 0.0600812988813191 0  0.1547906164069036 0.08359943224909387 0  0.1783087497746783 0.07385790244646231 0  0.1783087497746783 0.07385790244646231 0.006  0.145049086604272 0.0600812988813191 0.006  0.1547906164069036 0.08359943224909387 0.006  0.1847759065022574 0.07653668647301796 0  0.138581929876693 0.05740251485476346 0  0.1247204418453818 0.08333553495294033 0  0.1662939224605091 0.1111140466039204 0  0.1847759065022574 0.07653668647301796 0.241  0.138581929876693 0.05740251485476346 0.241  0.1662939224605091 0.1111140466039204 0.241  0.1247204418453818 0.08333553495294033 0.241  0.1679931948234991 0.05172558837745448 -0.02  0.1679931948234991 0.05172558837745448 -0.006  0.1652952766253253 0.05823893908165905 -0.006  0.1652952766253253 0.05823893908165905 0  0.1685672199720468 0.05033976907868755 0  0.1685672199720468 0.05033976907868755 0.006  0.148492424049175 0.148492424049175 -0.09000000000000001  0.09899494936611666 0.09899494936611665 -0.09000000000000001  0.07777983262274432 0.1164057457223563 -0.09000000000000001  0.1166697489341165 0.1746086185835345 -0.09000000000000001  0.148492424049175 0.148492424049175 -0.02  0.1354109485972239 0.1354109485972238 -0.02  0.1120764248180678 0.1120764248180678 -0.02  0.09899494936611666 0.09899494936611665 -0.02  0.1166697489341165 0.1746086185835345 -0.02  0.07777983262274432 0.1164057457223563 -0.02  0.1120764248180678 0.1354109485972238 -0.02  0.1354109485972239 0.1354109485972238 -0.006  0.1304258457898587 0.1304258457898587 -0.006  0.1170615276254329 0.1170615276254329 -0.006  0.1120764248180678 0.1120764248180678 -0.006  0.1120764248180678 0.1354109485972238 -0.006  0.117061527625433 0.1304258457898587 -0.006  0.1304258457898587 0.1304258457898587 0  0.1170615276254329 0.1170615276254329 0  0.117061527625433 0.1304258457898587 0  0.111015764646288 0.111015764646288 0  0.111015764646288 0.1364716087690037 0  0.1364716087690037 0.1364716087690036 0  0.1364716087690037 0.1364716087690036 0.006  0.111015764646288 0.111015764646288 0.006  0.111015764646288 0.1364716087690037 0.006  0.1414213562373095 0.1414213562373095 0  0.1060660171779821 0.1060660171779821 0  0.08333553495294035 0.1247204418453818 0  0.1111140466039205 0.1662939224605091 0  0.1414213562373095 0.1414213562373095 0.241  0.1060660171779821 0.1060660171779821 0.241  0.1111140466039205 0.1662939224605091 0.241  0.08333553495294035 0.1247204418453818 0.241  0.1354109485972239 0.1120764248180678 -0.02  0.1354109485972239 0.1120764248180678 -0.006  0.1304258457898587 0.1170615276254329 -0.006  0.1304258457898587 0.1170615276254329 0  0.1364716087690037 0.1110157646462879 0  0.1364716087690037 0.1110157646462879 0.006  0.08036352079666886 0.1940147018273702 -0.09000000000000001  0.05357568053111258 0.1293431345515802 -0.09000000000000001  0.02731264508225797 0.1373099392564523 -0.09000000000000001  0.04096896762338696 0.2059649088846784 -0.09000000000000001  0.08036352079666886 0.1940147018273702 -0.02  0.0732838772979147 0.1769229304759114 -0.02  0.06065532402986673 0.1464349059030389 -0.02  0.05357568053111258 0.1293431345515802 -0.02  0.04096896762338696 0.2059649088846784 -0.02  0.02731264508225797 0.1373099392564523 -0.02  0.05172558837745448 0.1679931948234991 -0.02  0.0732838772979147 0.1769229304759114 -0.006  0.07058595909974082 0.1704095797717068 -0.006  0.06335324222804062 0.1529482566072435 -0.006  0.06065532402986673 0.1464349059030389 -0.006  0.05172558837745448 0.1679931948234991 -0.006  0.05823893908165905 0.1652952766253253 -0.006  0.07058595909974082 0.1704095797717068 0  0.06335324222804062 0.1529482566072435 0  0.05823893908165905 0.1652952766253253 0  0.06008129888131911 0.145049086604272 0  0.05033976907868755 0.1685672199720468 0  0.07385790244646233 0.1783087497746783 0  0.07385790244646233 0.1783087497746783 0.006  0.06008129888131911 0.145049086604272 0.006  0.05033976907868755 0.1685672199720468 0.006  0.07653668647301798 0.1847759065022574 0  0.05740251485476347 0.138581929876693 0  0.02926354830241925 0.1471177920604846 0  0.03901806440322567 0.1961570560806461 0  0.07653668647301798 0.1847759065022574 0.241  0.05740251485476347 0.138581929876693 0.241  0.03901806440322567 0.1961570560806461 0.241  0.02926354830241925 0.1471177920604846 0.241  0.08221361295032695 0.1553646415554512 -0.02  0.08221361295032695 0.1553646415554512 -0.006  0.07570026224612236 0.1580625597536251 -0.006  0.07570026224612236 0.1580625597536251 0  0.08359943224909387 0.1547906164069036 0  0.08359943224909387 0.1547906164069036 0.006  1.285879139104721e-17 0.21 -0.09000000000000001  8.572527594031473e-18 0.14 -0.09000000000000001  -0.02731264508225795 0.1373099392564523 -0.09000000000000001  -0.04096896762338691 0.2059649088846784 -0.09000000000000001  1.285879139104721e-17 0.21 -0.02  1.172599310183591e-17 0.1915 -0.02  9.705325883242773e-18 0.1585 -0.02  8.572527594031473e-18 0.14 -0.02  -0.04096896762338691 0.2059649088846784 -0.02  -0.02731264508225795 0.1373099392564523 -0.02  -0.01649999999999999 0.175 -0.02  1.172599310183591e-17 0.1915 -0.006  1.129430510513647e-17 0.18445 -0.006  1.013701387994221e-17 0.16555 -0.006  9.705325883242773e-18 0.1585 -0.006  -0.01649999999999999 0.175 -0.006  -0.00944999999999999 0.175 -0.006  1.129430510513647e-17 0.18445 0  1.013701387994221e-17 0.16555 0  -0.00944999999999999 0.175 0  9.613477373306723e-18 0.157 0  -0.01799999999999999 0.175 0  1.181784161177196e-17 0.193 0  1.181784161177196e-17 0.193 0.006  9.613477373306723e-18 0.157 0.006  -0.01799999999999999 0.175 0.006  1.224646799147353e-17 0.2 0  9.184850993605149e-18 0.15 0  -0.02926354830241923 0.1471177920604846 0  -0.03901806440322564 0.1961570560806461 0  1.224646799147353e-17 0.2 0.241  9.184850993605149e-18 0.15 0.241  -0.03901806440322564 0.1961570560806461 0.241  -0.02926354830241923 0.1471177920604846 0.241  0.01650000000000001 0.175 -0.02  0.01650000000000001 0.175 -0.006  0.00945000000000001 0.175 -0.006  0.00945000000000001 0.175 0  0.01800000000000001 0.175 0  0.01800000000000001 0.175 0.006  -0.08036352079666884 0.1940147018273702 -0.09000000000000001  -0.05357568053111256 0.1293431345515802 -0.09000000000000001  -0.07777983262274431 0.1164057457223563 -0.09000000000000001  -0.1166697489341164 0.1746086185835345 -0.09000000000000001  -0.08036352079666884 0.1940147018273702 -0.02  -0.07328387729791469 0.1769229304759114 -0.02  -0.06065532402986671 0.1464349059030389 -0.02  -0.05357568053111256 0.1293431345515802 -0.02  -0.1166697489341164 0.1746086185835345 -0.02  -0.07777983262274431 0.1164057457223563 -0.02  -0.08221361295032693 0.1553646415554512 -0.02  -0.07328387729791469 0.1769229304759114 -0.006  -0.0705859590997408 0.1704095797717068 -0.006  -0.06335324222804059 0.1529482566072435 -0.006  -0.06065532402986671 0.1464349059030389 -0.006  -0.08221361295032693 0.1553646415554512 -0.006  -0.07570026224612236 0.1580625597536251 -0.006  -0.0705859590997408 0.1704095797717068 0  -0.06335324222804059 0.1529482566072435 0  -0.07570026224612236 0.1580625597536251 0  -0.06008129888131909 0.145049086604272 0  -0.08359943224909386 0.1547906164069036 0  -0.07385790244646231 0.1783087497746783 0  -0.07385790244646231 0.1783087497746783 0.006  -0.06008129888131909 0.145049086604272 0.006  -0.08359943224909386 0.1547906164069036 0.006  -0.07653668647301795 0.1847759065022574 0  -0.05740251485476346 0.138581929876693 0  -0.08333553495294033 0.1247204418453818 0  -0.1111140466039204 0.1662939224605091 0  
[...]
<PointData  Vectors="f_329"> 
<DataArray  type="Float64"  Name="f_329"  NumberOfComponents="3" format="ascii">1.0309210694559969e-03 4.5789967997465471e-04 0.0000000000000000e+00  1.0403121777006761e-03 4.5402086117581839e-04 0.0000000000000000e+00  8.3361082657380521e-04 4.4066765649233543e-04 0.0000000000000000e+00  8.5003619068513693e-04 4.4380736177795780e-04 0.0000000000000000e+00  9.1859544474598616e-04 4.6237790046387559e-04 0.0000000000000000e+00  9.8165323839967942e-04 4.0319191296741142e-04 0.0000000000000000e+00  7.7176021616225197e-04 4.3053078080550287e-04 0.0000000000000000e+00  8.0485545301740488e-04 4.2985062742107491e-04 0.0000000000000000e+00  9.6647393769839335e-04 3.4333022278072549e-04 0.0000000000000000e+00  8.8752498183273317e-04 3.4384061150757346e-04 0.0000000000000000e+00  9.2362473937195814e-04 3.5716366279552275e-04 0.0000000000000000e+00  1.0507076609872904e-03 -1.7337319337571658e-06 0.0000000000000000e+00  1.1100091756240452e-03 -7.7093068655917406e-05 0.0000000000000000e+00  1.1410616880612396e-03 -9.1314875854231372e-05 0.0000000000000000e+00  8.6678984303020681e-04 2.1541017025984710e-06 0.0000000000000000e+00  9.5365449623875025e-04 -7.2945967294333838e-05 0.0000000000000000e+00  9.3700507321660615e-04 -6.2192274100964206e-05 0.0000000000000000e+00  3.6991419847329595e-04 -4.7086868244168351e-05 0.0000000000000000e+00  3.8643470003640380e-04 -5.2890092278121197e-05 0.0000000000000000e+00  3.8973040827506255e-04 -5.2466453289035127e-05 0.0000000000000000e+00  2.7877903856190507e-04 -4.1697831943959230e-05 0.0000000000000000e+00  2.5693549877664766e-04 -3.4915708231592893e-05 0.0000000000000000e+00  2.7661956671746937e-04 -4.2001895969899150e-05 0.0000000000000000e+00  2.7401190254144165e-04 -4.1355108223810379e-05 0.0000000000000000e+00  2.5537954568087844e-04 -3.4722072419702543e-05 0.0000000000000000e+00  2.7545512154681593e-04 -4.1913996725473577e-05 0.0000000000000000e+00  2.8072097523450907e-04 -4.2647994811959101e-05 0.0000000000000000e+00  2.8012396428790448e-04 -4.2040288449931174e-05 0.0000000000000000e+00  2.2071979456775512e-04 -2.2993724838306186e-05 0.0000000000000000e+00  2.1651534150889438e-04 -2.2668812132415538e-05 0.0000000000000000e+00  -1.3080645169298942e-19 2.1799168187209906e-19 0.0000000000000000e+00  -1.6108893441019179e-19 2.8462688506330913e-20 0.0000000000000000e+00  -8.7787064109374648e-20 2.4807230067235579e-20 0.0000000000000000e+00  -7.6344208826560126e-20 1.8344336811334688e-19 0.0000000000000000e+00  1.1584321792610808e-03 4.6976804838069243e-04 0.0000000000000000e+00  1.1920613940094604e-03 4.6107794539408068e-04 0.0000000000000000e+00  1.2130868946594107e-03 3.6232466542142225e-04 0.0000000000000000e+00  1.0649234713139295e-03 4.7695095594466828e-04 0.0000000000000000e+00  1.0134975973260338e-03 3.4874577947293164e-04 0.0000000000000000e+00  1.1459866870696673e-03 -7.6073249087937249e-05 0.0000000000000000e+00  9.7591209754782193e-04 -7.2793120918249676e-05 0.0000000000000000e+00  3.8554418649721582e-04 -5.6808650952587625e-05 0.0000000000000000e+00  2.8236036632921393e-04 -4.6888284119337461e-05 0.0000000000000000e+00  2.8139184142160164e-04 -4.6806047756753927e-05 0.0000000000000000e+00  2.8494292940085667e-04 -5.2671950462367540e-05 0.0000000000000000e+00  2.8043647686823621e-04 -5.2706360611835321e-05 0.0000000000000000e+00  -1.1649451779688417e-19 -1.1799483499427860e-21 0.0000000000000000e+00  -1.3233229970324400e-19 1.0181258009804998e-19 0.0000000000000000e+00  6.1917104857959473e-04 4.0780970099201235e-04 0.0000000000000000e+00  6.2428830413267344e-04 3.9957958873600499e-04 0.0000000000000000e+00  3.7789166040784499e-04 3.4455673239418489e-04 0.0000000000000000e+00  3.8629002694075401e-04 3.4866471753630006e-04 0.0000000000000000e+00  5.7087121910435069e-04 3.7997533152871096e-04 0.0000000000000000e+00  5.2047047107275240e-04 3.7189987812579124e-04 0.0000000000000000e+00  5.7028859593593923e-04 3.1950645090806208e-04 0.0000000000000000e+00  5.5555377775983144e-04 3.8973892341716764e-04 0.0000000000000000e+00  3.6580434753588680e-04 3.3459170480045435e-04 0.0000000000000000e+00  3.4828318345097757e-04 3.3052057037201557e-04 0.0000000000000000e+00  4.2953324124308238e-04 3.5127656284535970e-04 0.0000000000000000e+00  6.7720817226191155e-04 1.0016415706159296e-04 0.0000000000000000e+00  5.7088511384721099e-04 7.5682183118799188e-05 0.0000000000000000e+00  6.1557741610300542e-04 4.3945766727645594e-05 0.0000000000000000e+00  7.4895920308477599e-04 4.5393325342279258e-05 0.0000000000000000e+00  7.4340894450641837e-04 2.8771206725735298e-05 0.0000000000000000e+00  6.4329633857199663e-04 2.0099169695111274e-05 0.0000000000000000e+00  2.4451479142607857e-04 1.2677569569241164e-06 0.0000000000000000e+00  2.5265057751698794e-04 -3.0078155966685915e-07 0.0000000000000000e+00  2.5261544733487903e-04 1.1893711936753301e-06 0.0000000000000000e+00  1.8618727555725815e-04 -4.0500451040945419e-06 0.0000000000000000e+00  1.6159006461682307e-04 3.3545648186659815e-06 0.0000000000000000e+00  1.8760614379634857e-04 -3.6482269437134652e-06 0.0000000000000000e+00  1.8458135526816175e-04 -3.8631900060588672e-06 0.0000000000000000e+00  1.8564502299337510e-04 -4.1393418216472089e-06 0.0000000000000000e+00  1.6014110811036158e-04 3.4200307454809067e-06 0.0000000000000000e+00  1.8845953656301245e-04 -3.7283013910334773e-06 0.0000000000000000e+00  1.8906764077604373e-04 -4.1275420919998455e-06 0.0000000000000000e+00  1.2304621213504469e-04 1.3983910744038133e-05 0.0000000000000000e+00  1.2080498462223282e-04 1.3680359881803836e-05 0.0000000000000000e+00  -6.2558924841593559e-20 1.1199812627447654e-19 0.0000000000000000e+00  -5.5337225237821210e-20 1.4749578398327667e-19 0.0000000000000000e+00  -2.0809658576970725e-19 5.7569990251069306e-20 0.0000000000000000e+00  -8.3362764599840558e-21 9.1756160903812536e-20 0.0000000000000000e+00  6.6700993520157697e-04 3.3736169492638044e-04 0.0000000000000000e+00  7.5995136566459694e-04 6.1583870754084677e-05 0.0000000000000000e+00  6.4552201591752299e-04 4.6011052718177999e-05 0.0000000000000000e+00  2.6206599118315608e-04 -4.7692620943067015e-06 0.0000000000000000e+00  2.0095922071889697e-04 -1.1584467960880898e-05 0.0000000000000000e+00  2.0030209387338752e-04 -1.1685794994816499e-05 0.0000000000000000e+00  1.3094347441794274e-04 2.7484084096211141e-04 0.0000000000000000e+00  1.2871245643607002e-04 2.7308077752270674e-04 0.0000000000000000e+00  -1.2873395868565448e-04 1.8972015755160668e-04 0.0000000000000000e+00  -1.3044241097380721e-04 1.9263973789390267e-04 0.0000000000000000e+00  1.2583601240745112e-04 2.5407424586597495e-04 0.0000000000000000e+00  1.3499945997512858e-04 2.3748367672454340e-04 0.0000000000000000e+00  1.2657243652321935e-04 2.3295966943686977e-04 0.0000000000000000e+00  1.0700196244529849e-04 2.5608410909715775e-04 0.0000000000000000e+00  -1.2578769419968995e-04 1.8326379424458240e-04 0.0000000000000000e+00  -1.2470720115861629e-04 1.7529735197658472e-04 0.0000000000000000e+00  3.9983112715438437e-05 2.0511392151749980e-04 0.0000000000000000e+00  2.1849816782102375e-04 1.7093680600261440e-04 0.0000000000000000e+00  1.8091678165081310e-04 1.4167516020796730e-04 0.0000000000000000e+00  2.0820181517242696e-04 1.3841353732076651e-04 0.0000000000000000e+00  2.5466587604937248e-04 1.6485469841815998e-04 0.0000000000000000e+00  2.2173549916371500e-04 1.5795511988243757e-04 0.0000000000000000e+00  1.9771553395947624e-04 1.3570468925933738e-04 0.0000000000000000e+00  9.0049126225205491e-05 4.8307318999938996e-05 0.0000000000000000e+00  9.8740175718819900e-05 5.2888559124252105e-05 0.0000000000000000e+00  8.5113456886144149e-05 5.3481454266772580e-05 0.0000000000000000e+00  7.1017937643127801e-05 3.4825755263286779e-05 0.0000000000000000e+00  4.5826506996153452e-05 4.1043847949823306e-05 0.0000000000000000e+00  7.1253455524571192e-05 3.5180041958022992e-05 0.0000000000000000e+00  7.0244650111677572e-05 3.4500703579523891e-05 0.0000000000000000e+00  7.0491567011901976e-05 3.4510305238261736e-05 0.0000000000000000e+00  4.5225567746981964e-05 4.0847750152634140e-05 0.0000000000000000e+00  7.1594228231800476e-05 3.5314641950128249e-05 0.0000000000000000e+00  7.1727978972997692e-05 3.5175143095200932e-05 0.0000000000000000e+00  8.3238620363199692e-06 4.9550233461153985e-05 0.0000000000000000e+00  8.4363759877723395e-06 4.8624789721616017e-05 0.0000000000000000e+00  -3.7775956543844802e-20 3.2687461586238924e-20 0.0000000000000000e+00  -9.6885866525649955e-20 4.9755915039149750e-20 0.0000000000000000e+00  -6.8269591744163205e-20 3.2882319363483061e-20 0.0000000000000000e+00  -6.4777636102521332e-20 8.1989378342304676e-20 0.0000000000000000e+00  2.2471523301989711e-04 2.6524572473105425e-04 0.0000000000000000e+00  2.7558119466091255e-04 1.7432227640413477e-04 0.0000000000000000e+00  2.3262473532033735e-04 1.4485993038623339e-04 0.0000000000000000e+00  1.0537658212007945e-04 4.5588264808491891e-05 0.0000000000000000e+00  9.2253487700542304e-05 2.6514186230392538e-05 0.0000000000000000e+00  9.2226624405818196e-05 2.6256360613378155e-05 0.0000000000000000e+00  -3.8202527555557904e-04 9.5890030152724303e-05 0.0000000000000000e+00  -3.8086182431801464e-04 1.0084415196799990e-04 0.0000000000000000e+00  -6.1436971825926025e-04 3.1666928861703175e-06 0.0000000000000000e+00  -6.2322259003764601e-04 4.0799525053017503e-06 0.0000000000000000e+00  -3.5318438021759546e-04 8.7048357615694704e-05 0.0000000000000000e+00  -3.3204356177330948e-04 7.1423378694549606e-05 0.0000000000000000e+00  -3.2744642799099248e-04 1.0596230795385491e-04 0.0000000000000000e+00  -3.5198815731658100e-04 7.8522393268422322e-05 0.0000000000000000e+00  -5.9272118423082921e-04 -2.3164762847715603e-06 0.0000000000000000e+00  -5.7506467375734865e-04 -1.0088693053446937e-05 0.0000000000000000e+00  -4.2003360279409827e-04 7.5253995130921195e-05 0.0000000000000000e+00  -2.7239808773565097e-04 2.1374854829476331e-04 0.0000000000000000e+00  -2.2469589219455073e-04 1.8312555154760296e-04 0.0000000000000000e+00  -2.2723990261825467e-04 2.0948957841652489e-04 0.0000000000000000e+00  -2.7460850646653703e-04 2.5702688363832564e-04 0.0000000000000000e+00  -3.0035666881234052e-04 2.3873301408148279e-04 0.0000000000000000e+00  -2.4852615956058463e-04 2.0880604087801120e-04 0.0000000000000000e+00  -7.9065273040460754e-05 8.9267547511856325e-05 0.0000000000000000e+00  -8.3213589046551801e-05 9.4518765810902978e-05 0.0000000000000000e+00  -9.1281490077065269e-05 9.4469856242455837e-05 0.0000000000000000e+00  -5.5443959877312533e-05 6.9237574609101418e-05 0.0000000000000000e+00  -7.6569501441232956e-05 7.3234831515923293e-05 0.0000000000000000e+00  -5.6027418087491613e-05 6.9562765867494460e-05 0.0000000000000000e+00  -5.4843746418163941e-05 6.8510837063550154e-05 0.0000000000000000e+00  -5.5062134377005070e-05 6.8958453121462172e-05 0.0000000000000000e+00  -7.6323402619495477e-05 7.3012331269832012e-05 0.0000000000000000e+00  -5.6308187533705738e-05 6.9908307886314638e-05 0.0000000000000000e+00  -5.6261958257348995e-05 7.0206838543965952e-05 0.0000000000000000e+00  -1.0771368226805029e-04 7.8178522497338672e-05 0.0000000000000000e+00  -1.0563222583984203e-04 7.6881692362398911e-05 0.0000000000000000e+00  -1.8022798977292081e-20 1.8183913433041621e-19 0.0000000000000000e+00  -9.1676677106908692e-20 6.5868089617810870e-20 0.0000000000000000e+00  -1.9127000277812915e-19 8.8530824921295605e-20 0.0000000000000000e+00  -2.2830592948091910e-20 8.0842859626246199e-20 0.0000000000000000e+00  -2.4034232752086378e-04 1.0482644074251933e-04 0.0000000000000000e+00  -2.5029702227668936e-04 2.7711320867099894e-04 0.0000000000000000e+00  -2.1621436182933060e-04 2.3708878294282105e-04 0.0000000000000000e+00  -6.8018817589828913e-05 9.0520888339941694e-05 0.0000000000000000e+00  -3.0766259037193134e-05 6.1882546592166197e-05 0.0000000000000000e+00  -3.0562534325571537e-05 6.1666277078272437e-05 0.0000000000000000e+00  -8.3557327053686346e-04 -8.5497338346152688e-05 0.0000000000000000e+00  -8.3176328182585791e-04 -8.5023359397406816e-05 0.0000000000000000e+00  -1.0080138172354888e-03 -1.7442058063979449e-04 0.0000000000000000e+00  -1.0228427101006551e-03 -1.7674656264764880e-04 0.0000000000000000e+00  -7.7630007707065319e-04 -7.2533391887621155e-05 0.0000000000000000e+00  -7.5045889902407726e-04 -3.2510227474457509e-05 0.0000000000000000e+00  -7.2783089441763300e-04 -4.3430141948877846e-05 0.0000000000000000e+00  -7.5457209005456711e-04 -1.1293477606543818e-04 0.0000000000000000e+00  -9.5948517374355204e-04 -1.9498867903487043e-04 0.0000000000000000e+00  -9.3323352428357988e-04 -1.9475354450086902e-04 0.0000000000000000e+00  -8.1179277533196181e-04 -7.0540351131915467e-05 0.0000000000000000e+00  -7.1575359608025163e-04 2.2277340536451558e-04 0.0000000000000000e+00  -5.8965880903153389e-04 1.8266824873642304e-04 0.0000000000000000e+00  -6.2032283625768135e-04 2.4187929305736450e-04 0.0000000000000000e+00  -7.5436019991048512e-04 3.0432051512522531e-04 0.0000000000000000e+00  -7.6965533647645776e-04 2.8060284051339594e-04 0.0000000000000000e+00  -6.5040716607859411e-04 2.4851244937110261e-04 0.0000000000000000e+00  -2.3321947790752397e-04 1.1495633191596757e-04 0.0000000000000000e+00  -2.3848925581868919e-04 1.1996163707431196e-04 0.0000000000000000e+00  -2.4726006114149498e-04 1.2265187222892980e-04 0.0000000000000000e+00  -1.7042981630391359e-04 9.2493075423325297e-05 0.0000000000000000e+00  -1.8458261307515431e-04 9.3222986669918412e-05 0.0000000000000000e+00  -1.7199349539028365e-04 9.2747911110522543e-05 0.0000000000000000e+00  -1.6883942103427678e-04 9.1548676793823524e-05 0.0000000000000000e+00  -1.6987704006468028e-04 9.2365204037013685e-05 0.0000000000000000e+00  -1.8396535198899038e-04 9.2918426297892894e-05 0.0000000000000000e+00  -1.7283034923471532e-04 9.3253640786277863e-05 0.0000000000000000e+00  -1.7330625211185149e-04 9.3945849596785701e-05 0.0000000000000000e+00  -2.0215054283981670e-04 9.2353893919044162e-05 0.0000000000000000e+00  -1.9868364145628632e-04 9.1374850784599709e-05 0.0000000000000000e+00  -2.7721324763719913e-20 6.8836990700436219e-20 0.0000000000000000e+00  -5.6525372899896385e-21 2.5280207093114763e-22 0.0000000000000000e+00  -2.1337362950989445e-19 1.3961732141137245e-19 0.0000000000000000e+00  -1.9090082983791998e-19 6.2201452611514993e-20 0.0000000000000000e+00  -6.7122643789555990e-04 7.3238089601807411e-07 0.0000000000000000e+00  -7.2846762308491852e-04 3.0048000023102234e-04 0.0000000000000000e+00  -6.2341369743136349e-04 2.6032207257928585e-04 0.0000000000000000e+00  -2.2789524715342063e-04 1.2062933483462647e-04 0.0000000000000000e+00  -1.4631524488646560e-04 8.7198189205463743e-05 0.0000000000000000e+00  -1.4526867399478763e-04 8.6799518265009962e-05 0.0000000000000000e+00  -1.1454235133502705e-03 -2.7642389337861157e-04 0.0000000000000000e+00  -1.1660311118208350e-03 -2.3704628162168635e-04 0.0000000000000000e+00  -1.2535617893482561e-03 -3.1023444196115241e-04 0.0000000000000000e+00  -1.2876072472513711e-03 -2.9502304511074988e-04 0.0000000000000000e+00  -1.0551789367122249e-03 -2.6418219454358882e-04 0.0000000000000000e+00  -8.9296055941159554e-04 -3.9732372405150830e-04 0.0000000000000000e+00  -9.5573337501687319e-04 -2.7045329932007961e-04 0.0000000000000000e+00  -1.0295769211590851e-03 -2.9935557272161163e-04 0.0000000000000000e+00  -1.2741413745256537e-03 -2.1554910541573432e-04 0.0000000000000000e+00  -1.1609041785324030e-03 -3.2934271847792201e-04 0.0000000000000000e+00  -1.6070287883543522e-03 5.5805092788685105e-04 0.0000000000000000e+00  -9.5786580534090813e-04 5.7550008703315103e-05 0.0000000000000000e+00  -9.1306062021599362e-04 2.2465919424924540e-04 0.0000000000000000e+00  -8.2328660504878452e-04 9.0304146047057214e-05 0.0000000000000000e+00  -8.9246083708521590e-04 -3.2133280418388866e-05 0.0000000000000000e+00  -8.7597085457866500e-04 -8.4588573362803305e-05 0.0000000000000000e+00  -8.6272207320115099e-04 1.1089917784310683e-04 0.0000000000000000e+00  -3.5065139629423598e-04 1.2266348730130536e-04 0.0000000000000000e+00  -3.5975577993569775e-04 1.0083909202258760e-04 0.0000000000000000e+00  -3.7594234203127335e-04 1.3215458665877386e-04 0.0000000000000000e+00  -2.5485060798790133e-04 9.7569525714483299e-05 0.0000000000000000e+00  -2.6247746231555379e-04 9.9740606854975075e-05 0.0000000000000000e+00  -2.5838754586021429e-04 1.0015314504882410e-04 0.0000000000000000e+00  -2.5365996930499634e-04 9.8949132339949550e-05 0.0000000000000000e+00  -2.5294072958797684e-04 9.7430115079190691e-05 0.0000000000000000e+00  -2.6075116649546199e-04 9.9214367840822474e-05 0.0000000000000000e+00  -2.5950140783603858e-04 1.0051622300485751e-04 0.0000000000000000e+00  -2.5773568487062770e-04 9.8735918562220396e-05 0.0000000000000000e+00  -2.6738950509587651e-04 9.8732511056884477e-05 0.0000000000000000e+00  -2.6261574526724907e-04 9.7808518391382727e-05 0.0000000000000000e+00  -2.8141243746849291e-20 1.0885882830596731e-19 0.0000000000000000e+00  -2.5147609987374473e-20 7.9473330922997463e-20 0.0000000000000000e+00  -5.6651406948606185e-20 1.5026799245611900e-19 0.0000000000000000e+00  -1.4129843828747964e-19 1.8711910391042766e-19 0.0000000000000000e+00  -9.5271306399747854e-04 -2.0474769509968161e-04 0.0000000000000000e+00  -8.6023866167746687e-04 -5.4739133015679653e-05 0.0000000000000000e+00  -7.9703028957367288e-04 5.0678174905918977e-05 0.0000000000000000e+00  -3.3360409303857390e-04 1.0606496843552388e-04 0.0000000000000000e+00  -2.3423751058976517e-04 9.4891538205156640e-05 0.0000000000000000e+00  -2.3292341748496815e-04 9.4623004254078743e-05 0.0000000000000000e+00  -1.3342407943430265e-03 -3.4543749452590344e-04 0.0000000000000000e+00  -1.3230771720924512e-03 -3.5247367008093698e-04 0.0000000000000000e+00  -1.3049298943289594e-03 -4.0438562753604841e-04 0.0000000000000000e+00  -1.3319212908474304e-03 -4.0305309899763610e-04 0.0000000000000000e+00  -1.2542229799109544e-03 -2.9295233040876271e-04 0.0000000000000000e+00  -1.2221660217289028e-03 -2.2413519207277325e-04 0.0000000000000000e+00  -1.1753815184047530e-03 -2.4638416911241287e-04 0.0000000000000000e+00  -1.1956098567858281e-03 -3.7037042375542438e-04 0.0000000000000000e+00  -1.2669745526350982e-03 -3.9067929360386486e-04 0.0000000000000000e+00  -1.2205263019994634e-03 -3.9997179011301136e-04 0.0000000000000000e+00  -1.2081617503281808e-03 -2.5492858064719295e-04 0.0000000000000000e+00  -1.2362867081580913e-03 1.9424631539594799e-04 0.0000000000000000e+00  -1.0184573902448741e-03 1.5712021448811538e-04 0.0000000000000000e+00  -1.0844140207087690e-03 2.4448324995111182e-04 0.0000000000000000e+00  -1.3208151585296065e-03 3.1498567247651072e-04 0.0000000000000000e+00  -1.3102323471190682e-03 2.8788103288496177e-04 0.0000000000000000e+00  -1.1164210357438014e-03 2.5729145933287148e-04 0.0000000000000000e+00  -4.1550101535548964e-04 1.2640340808315790e-04 0.0000000000000000e+00  -4.2544908407261936e-04 1.3316892868360655e-04 0.0000000000000000e+00  -4.2683543356185957e-04 1.3521345764396149e-04 0.0000000000000000e+00  -3.0635220307387436e-04 1.0397348503711520e-04 0.0000000000000000e+00  -3.0241371133129526e-04 9.9952988125204606e-05 0.0000000000000000e+00  -3.0887776721949051e-04 1.0404023669768054e-04 0.0000000000000000e+00  -3.0337883647352476e-04 1.0280851540019221e-04 0.0000000000000000e+00  -3.0536984320355526e-04 1.0387677658963400e-04 0.0000000000000000e+00  -3.0096088954072539e-04 9.9550809401473804e-05 0.0000000000000000e+00  -3.1039529970906701e-04 1.0467438793964198e-04 0.0000000000000000e+00  -3.1140302746866951e-04 1.0567555651306966e-04 0.0000000000000000e+00  -2.9156082723993796e-04 9.2304644654394756e-05 0.0000000000000000e+00  -2.8598032036505168e-04 9.0889184224604637e-05 0.0000000000000000e+00  -1.1649804189941700e-19 1.2723823007706698e-19 0.0000000000000000e+00  -1.5950649427542626e-19 1.8459264056149708e-19 0.0000000000000000e+00  -1.6879289597654485e-19 1.4486343840609321e-20