<?xml version="1.0"?>
<VTKFile type="UnstructuredGrid"  version="0.1"  >
<UnstructuredGrid>
<Piece  NumberOfPoints="4160" NumberOfCells="16142">
<Points>
<DataArray  type="Float64"  NumberOfComponents="3"  format="ascii">0.175 0 0  0.18445 0 0  0.175 0.00945 0  0.16555 0 0  0.193 0 0  0.175 0.018 0  0.157 0 0  0.175 0 0.006  0.193 0 0.006  0.175 0.018 0.006  0.157 0 0.006  0.175 -0.00945 0  0.175 -0.018 0  0.175 -0.018 0.006  0.1529482566072435 0.0633532422280406 0  0.1704095797717068 0.07058595909974082 0  0.1616789181894752 0.06696960066389071 0  0.1580625597536251 0.07570026224612236 0  0.145049086604272 0.0600812988813191 0  0.1547906164069036 0.08359943224909387 0  0.1783087497746783 0.07385790244646231 0  0.1783087497746783 0.07385790244646231 0.006  0.145049086604272 0.0600812988813191 0.006  0.1547906164069036 0.08359943224909387 0.006  0.1616789181894752 0.06696960066389071 0.006  0.1652952766253253 0.05823893908165905 0  0.1685672199720468 0.05033976907868755 0  0.1685672199720468 0.05033976907868755 0.006  0.1170615276254329 0.1170615276254329 0  0.1304258457898587 0.1304258457898587 0  0.1237436867076458 0.1237436867076458 0  0.117061527625433 0.1304258457898587 0  0.111015764646288 0.111015764646288 0  0.111015764646288 0.1364716087690037 0  0.1364716087690037 0.1364716087690036 0  0.1364716087690037 0.1364716087690036 0.006  0.111015764646288 0.111015764646288 0.006  0.111015764646288 0.1364716087690037 0.006  0.1237436867076458 0.1237436867076458 0.006  0.1304258457898587 0.1170615276254329 0  0.1364716087690037 0.1110157646462879 0  0.1364716087690037 0.1110157646462879 0.006  0.06335324222804062 0.1529482566072435 0  0.07058595909974082 0.1704095797717068 0  0.06696960066389071 0.1616789181894752 0  0.05823893908165905 0.1652952766253253 0  0.06008129888131911 0.145049086604272 0  0.05033976907868755 0.1685672199720468 0  0.07385790244646233 0.1783087497746783 0  0.07385790244646233 0.1783087497746783 0.006  0.06008129888131911 0.145049086604272 0.006  0.05033976907868755 0.1685672199720468 0.006  0.06696960066389071 0.1616789181894752 0.006  0.07570026224612236 0.1580625597536251 0  0.08359943224909387 0.1547906164069036 0  0.08359943224909387 0.1547906164069036 0.006  1.013701387994221e-17 0.16555 0  1.129430510513647e-17 0.18445 0  1.071565949253934e-17 0.175 0  -0.00944999999999999 0.175 0  9.613477373306723e-18 0.157 0  -0.01799999999999999 0.175 0  1.181784161177196e-17 0.193 0  1.181784161177196e-17 0.193 0.006  9.613477373306723e-18 0.157 0.006  -0.01799999999999999 0.175 0.006  1.071565949253934e-17 0.175 0.006  0.00945000000000001 0.175 0  0.01800000000000001 0.175 0  0.01800000000000001 0.175 0.006  -0.06335324222804059 0.1529482566072435 0  -0.0705859590997408 0.1704095797717068 0  -0.0669696006638907 0.1616789181894752 0  -0.07570026224612236 0.1580625597536251 0  -0.06008129888131909 0.145049086604272 0  -0.08359943224909386 0.1547906164069036 0  -0.07385790244646231 0.1783087497746783 0  -0.07385790244646231 0.1783087497746783 0.006  -0.06008129888131909 0.145049086604272 0.006  -0.08359943224909386 0.1547906164069036 0.006  -0.0669696006638907 0.1616789181894752 0.006  -0.05823893908165904 0.1652952766253253 0  -0.05033976907868754 0.1685672199720468 0  -0.05033976907868754 0.1685672199720468 0.006  -0.1170615276254329 0.1170615276254329 0  -0.1304258457898587 0.1304258457898587 0  -0.1237436867076458 0.1237436867076458 0  -0.1304258457898587 0.117061527625433 0  -0.111015764646288 0.111015764646288 0  -0.1364716087690037 0.111015764646288 0  -0.1364716087690036 0.1364716087690037 0  -0.1364716087690036 0.1364716087690037 0.006  -0.111015764646288 0.111015764646288 0.006  -0.1364716087690037 0.111015764646288 0.006  -0.1237436867076458 0.1237436867076458 0.006  -0.1170615276254329 0.1304258457898587 0  -0.1110157646462879 0.1364716087690037 0  -0.1110157646462879 0.1364716087690037 0.006  -0.1529482566072435 0.06335324222804062 0  -0.1704095797717068 0.07058595909974083 0  -0.1616789181894752 0.06696960066389072 0  -0.1652952766253253 0.05823893908165906 0  -0.145049086604272 0.06008129888131911 0  -0.1685672199720468 0.05033976907868756 0  -0.1783087497746783 0.07385790244646234 0  -0.1783087497746783 0.07385790244646234 0.006  -0.145049086604272 0.06008129888131911 0.006  -0.1685672199720468 0.05033976907868756 0.006  -0.1616789181894752 0.06696960066389072 0.006  -0.1580625597536251 0.07570026224612239 0  -0.1547906164069036 0.08359943224909389 0  -0.1547906164069036 0.08359943224909389 0.006  -0.16555 2.027402775988443e-17 0  -0.18445 2.258861021027293e-17 0  -0.175 2.143131898507868e-17 0  -0.175 -0.009449999999999979 0  -0.157 1.922695474661345e-17 0  -0.175 -0.01799999999999998 0  -0.193 2.363568322354391e-17 0  -0.193 2.363568322354391e-17 0.006  -0.157 1.922695474661345e-17 0.006  -0.175 -0.01799999999999998 0.006  -0.175 2.143131898507868e-17 0.006  -0.175 0.009450000000000021 0  -0.175 0.01800000000000002 0  -0.175 0.01800000000000002 0.006  -0.1529482566072435 -0.06335324222804059 0  -0.1704095797717069 -0.07058595909974079 0  -0.1616789181894752 -0.06696960066389068 0  -0.1580625597536251 -0.07570026224612235 0  -0.145049086604272 -0.06008129888131908 0  -0.1547906164069036 -0.08359943224909384 0  -0.1783087497746783 -0.0738579024464623 0  -0.1783087497746783 -0.0738579024464623 0.006  -0.145049086604272 -0.06008129888131908 0.006  -0.1547906164069036 -0.08359943224909384 0.006  -0.1616789181894752 -0.06696960066389068 0.006  -0.1652952766253253 -0.05823893908165902 0  -0.1685672199720468 -0.05033976907868752 0  -0.1685672199720468 -0.05033976907868752 0.006  -0.117061527625433 -0.1170615276254329 0  -0.1304258457898587 -0.1304258457898587 0  -0.1237436867076458 -0.1237436867076458 0  -0.117061527625433 -0.1304258457898587 0  -0.111015764646288 -0.111015764646288 0  -0.111015764646288 -0.1364716087690037 0  -0.1364716087690037 -0.1364716087690036 0  -0.1364716087690037 -0.1364716087690036 0.006  -0.111015764646288 -0.111015764646288 0.006  -0.111015764646288 -0.1364716087690037 0.006  -0.1237436867076458 -0.1237436867076458 0.006  -0.1304258457898587 -0.1170615276254329 0  -0.1364716087690037 -0.1110157646462879 0  -0.1364716087690037 -0.1110157646462879 0.006  -0.0633532422280407 -0.1529482566072435 0  -0.07058595909974091 -0.1704095797717068 0  -0.06696960066389081 -0.1616789181894751 0  -0.05823893908165915 -0.1652952766253252 0  -0.06008129888131918 -0.145049086604272 0  -0.05033976907868765 -0.1685672199720468 0  -0.07385790244646243 -0.1783087497746783 0  -0.07385790244646243 -0.1783087497746783 0.006  -0.06008129888131918 -0.145049086604272 0.006  -0.05033976907868765 -0.1685672199720468 0.006  -0.06696960066389081 -0.1616789181894751 0.006  -0.07570026224612246 -0.158062559753625 0  -0.08359943224909397 -0.1547906164069035 0  -0.08359943224909397 -0.1547906164069035 0.006  -3.041104163982664e-17 -0.16555 0  -3.388291531540939e-17 -0.18445 0  -3.214697847761802e-17 -0.175 0  0.009449999999999967 -0.175 0  -2.884043211992017e-17 -0.157 0  0.01799999999999997 -0.175 0  -3.545352483531587e-17 -0.193 0  -3.545352483531587e-17 -0.193 0.006  -2.884043211992017e-17 -0.157 0.006  0.01799999999999997 -0.175 0.006  -3.214697847761802e-17 -0.175 0.006  -0.009450000000000033 -0.175 0  -0.01800000000000003 -0.175 0  -0.01800000000000003 -0.175 0.006  0.06335324222804065 -0.1529482566072435 0  0.07058595909974086 -0.1704095797717068 0  0.06696960066389075 -0.1616789181894752 0  0.07570026224612242 -0.1580625597536251 0  0.06008129888131913 -0.145049086604272 0  0.08359943224909391 -0.1547906164069035 0  0.07385790244646236 -0.1783087497746783 0  0.07385790244646236 -0.1783087497746783 0.006  0.06008129888131913 -0.145049086604272 0.006  0.08359943224909391 -0.1547906164069035 0.006  0.06696960066389075 -0.1616789181894752 0.006  0.05823893908165909 -0.1652952766253253 0  0.05033976907868759 -0.1685672199720468 0  0.05033976907868759 -0.1685672199720468 0.006  0.1170615276254329 -0.117061527625433 0  0.1304258457898587 -0.1304258457898587 0  0.1237436867076458 -0.1237436867076458 0  0.1304258457898587 -0.117061527625433 0  0.1110157646462879 -0.111015764646288 0  0.1364716087690036 -0.111015764646288 0  0.1364716087690036 -0.1364716087690037 0  0.1364716087690036 -0.1364716087690037 0.006  0.1110157646462879 -0.111015764646288 0.006  0.1364716087690036 -0.111015764646288 0.006  0.1237436867076458 -0.1237436867076458 0.006  0.1170615276254329 -0.1304258457898587 0  0.1110157646462879 -0.1364716087690037 0  0.1110157646462879 -0.1364716087690037 0.006  0.1529482566072435 -0.0633532422280407 0  0.1704095797717068 -0.07058595909974093 0  0.1616789181894751 -0.06696960066389081 0  0.1652952766253252 -0.05823893908165915 0  0.145049086604272 -0.06008129888131919 0  0.1685672199720468 -0.05033976907868765 0  0.1783087497746783 -0.07385790244646244 0  0.1783087497746783 -0.07385790244646244 0.006  0.145049086604272 -0.06008129888131919 0.006  0.1685672199720468 -0.05033976907868765 0.006  0.1616789181894751 -0.06696960066389081 0.006  0.158062559753625 -0.07570026224612246 0  0.1547906164069035 -0.08359943224909397 0  0.1547906164069035 -0.08359943224909397 0.006  0.1816821590571039 0.006682159107321884 0  0.1683178408904039 0.006682159054829612 0  0.1905884572626798 0.009000000009422473 0  0.1839999999697972 0.01558845728555746 0  0.1659999999713115 0.01558845725155659 0  0.1594115427217315 0.008999999982422135 0  0.1659999999999918 0 0.006  0.1839999999999864 0 0.006  0.1905884572626798 0.009000000009422473 0.006  0.1839999999697972 0.01558845728555746 0.006  0.1659999999713115 0.01558845725155659 0.006  0.1594115427217315 0.008999999982422135 0.006  0.1816821590822129 -0.006682159082212883 0  0.1683178409177871 -0.006682159082212875 0  0.1594115427217313 -0.008999999982421729 0  0.1659999999713265 -0.01558845725156525 0  0.1839999999697972 -0.01558845728555747 0  0.1905884572626846 -0.009000000009414219 0  0.1839999999697972 -0.01558845728555747 0.006  0.1905884572626846 -0.00
[...]
<PointData  Vectors="f_1272"> 
<DataArray  type="Float64"  Name="f_1272"  NumberOfComponents="3" format="ascii">2.4934807248338736e-01 1.9941212838175619e+00 0.0000000000000000e+00  4.6901664771219675e-01 2.0429883022615494e+00 0.0000000000000000e+00  4.2896116777564097e-01 1.6498318876015745e+00 0.0000000000000000e+00  4.5669038341850993e-01 2.0367726731534455e+00 0.0000000000000000e+00  6.7598008627838480e-01 2.0105155182965224e+00 0.0000000000000000e+00  5.5292454969662908e-01 1.1068680764773415e+00 0.0000000000000000e+00  6.7492170184692180e-01 2.0055972901165600e+00 0.0000000000000000e+00  5.7437494621228047e-01 2.0050729187180814e+00 0.0000000000000000e+00  6.3458543956170277e-01 1.9389792729697652e+00 0.0000000000000000e+00  5.0684280938626591e-01 1.0302132825131023e+00 0.0000000000000000e+00  6.2998312930123856e-01 1.9279499891685483e+00 0.0000000000000000e+00  5.1162435454222810e-01 2.4502419171706786e+00 0.0000000000000000e+00  7.7701707116445962e-01 2.8223704297665071e+00 0.0000000000000000e+00  7.3552719056466731e-01 2.7709487384655556e+00 0.0000000000000000e+00  1.7621008846935904e-01 -2.7427771792856537e+00 0.0000000000000000e+00  1.6296502530820411e-01 -2.7554031159332650e+00 0.0000000000000000e+00  4.2138235158547233e-01 -2.6134202012931720e+00 0.0000000000000000e+00  1.3339703532236039e-01 -3.1467069332404596e+00 0.0000000000000000e+00  -1.0872301534858890e-01 -2.7823122299182246e+00 0.0000000000000000e+00  -2.3406960132125812e-01 -3.5781183243286114e+00 0.0000000000000000e+00  -1.0859625218918194e-01 -2.7892221227144334e+00 0.0000000000000000e+00  -8.2199330285360750e-02 -2.6830461443300053e+00 0.0000000000000000e+00  -8.0084574504335884e-02 -2.6670983959877117e+00 0.0000000000000000e+00  -2.0311947602012070e-01 -3.4907667259923705e+00 0.0000000000000000e+00  1.7308907356133968e-02 -2.7453486039080786e+00 0.0000000000000000e+00  2.0309838713864753e-01 -2.3723013840419171e+00 0.0000000000000000e+00  1.0335025361505190e-02 -1.8791502448026756e+00 0.0000000000000000e+00  4.3222433437029924e-02 -1.7695953291493383e+00 0.0000000000000000e+00  -1.1913232709884643e-01 -7.0855259684816447e+00 0.0000000000000000e+00  -1.5742422652393115e-01 -7.1142729134628562e+00 0.0000000000000000e+00  5.4044927622043337e-01 -6.8024782392865859e+00 0.0000000000000000e+00  -1.8951893827306782e-01 -7.4609222235255386e+00 0.0000000000000000e+00  -8.6707607281322741e-01 -7.1316483073641024e+00 0.0000000000000000e+00  -9.7455605947845803e-01 -7.7038600550756433e+00 0.0000000000000000e+00  -8.6806885217056262e-01 -7.1481868248395095e+00 0.0000000000000000e+00  -7.7880318392428061e-01 -6.8825456276157562e+00 0.0000000000000000e+00  -7.7031748768040942e-01 -6.8432778400317371e+00 0.0000000000000000e+00  -8.7616549002162192e-01 -7.4690745891990309e+00 0.0000000000000000e+00  -5.3294033342523184e-01 -7.0604367402770256e+00 0.0000000000000000e+00  -1.0277780123521643e-01 -6.7938528122705035e+00 0.0000000000000000e+00  -7.5678880508699142e-01 -6.2902109170931100e+00 0.0000000000000000e+00  -6.5047259368865462e-01 -6.0340729340712231e+00 0.0000000000000000e+00  -3.9972769587806661e-01 -1.0356486143759213e+01 0.0000000000000000e+00  -4.5669056764792437e-01 -1.0397594445259845e+01 0.0000000000000000e+00  5.7579495347169307e-01 -9.9629502054523051e+00 0.0000000000000000e+00  -5.3507566668333306e-01 -1.0676913000402219e+01 0.0000000000000000e+00  -1.4933542598182350e+00 -1.0398931209542026e+01 0.0000000000000000e+00  -1.5564048361275351e+00 -1.0640932751398005e+01 0.0000000000000000e+00  -1.4953650380946069e+00 -1.0423371429028464e+01 0.0000000000000000e+00  -1.3565111070819380e+00 -1.0037767166141375e+01 0.0000000000000000e+00  -1.3428426036963086e+00 -9.9803771150926401e+00 0.0000000000000000e+00  -1.4063220483292780e+00 -1.0306255083902178e+01 0.0000000000000000e+00  -1.0033024255277978e+00 -1.0306291565002383e+01 0.0000000000000000e+00  -4.5485930358986953e-01 -1.0226634631256690e+01 0.0000000000000000e+00  -1.3907031146764279e+00 -9.7195755930337882e+00 0.0000000000000000e+00  -1.2354054542322441e+00 -9.3739200385200245e+00 0.0000000000000000e+00  -6.6120579410800595e-01 -1.2082418539159288e+01 0.0000000000000000e+00  -6.7912679283426625e-01 -1.2093284888860943e+01 0.0000000000000000e+00  5.2579445433105587e-01 -1.1605853951198696e+01 0.0000000000000000e+00  -7.5451327840520965e-01 -1.2234277639956080e+01 0.0000000000000000e+00  -1.9096580684866276e+00 -1.2102469254612002e+01 0.0000000000000000e+00  -1.9064800654358791e+00 -1.1971101961785763e+01 0.0000000000000000e+00  -1.8922876837584275e+00 -1.2109817079309989e+01 0.0000000000000000e+00  -1.7249546611217021e+00 -1.1663632082209546e+01 0.0000000000000000e+00  -1.7096097235731837e+00 -1.1598341393691518e+01 0.0000000000000000e+00  -1.7267830727895768e+00 -1.1580283173973562e+01 0.0000000000000000e+00  -1.3159312607693610e+00 -1.1980558477874494e+01 0.0000000000000000e+00  -6.5800234041434258e-01 -1.2061835952579147e+01 0.0000000000000000e+00  -1.8326983328729669e+00 -1.1705542882738690e+01 0.0000000000000000e+00  -1.6481608895202147e+00 -1.1294504595579204e+01 0.0000000000000000e+00  -7.4886964530368028e-01 -1.1931067435026796e+01 0.0000000000000000e+00  -8.1513849521531134e-01 -1.1977892016071113e+01 0.0000000000000000e+00  3.8393898117691283e-01 -1.1506222132211036e+01 0.0000000000000000e+00  -8.7194285755195688e-01 -1.1957204216203843e+01 0.0000000000000000e+00  -2.0068028283281039e+00 -1.1947101450331679e+01 0.0000000000000000e+00  -1.9734273325781422e+00 -1.1497396517651991e+01 0.0000000000000000e+00  -2.0089231918058452e+00 -1.1975143319351210e+01 0.0000000000000000e+00  -1.8376819638761406e+00 -1.1533269584794210e+01 0.0000000000000000e+00  -1.8214064563942527e+00 -1.1467439651731382e+01 0.0000000000000000e+00  -1.7900076458621701e+00 -1.1106601292281391e+01 0.0000000000000000e+00  -1.4396970928798416e+00 -1.1854760578294124e+01 0.0000000000000000e+00  -7.7483727653411749e-01 -1.2075245397636486e+01 0.0000000000000000e+00  -1.9986045613867540e+00 -1.1914748060055105e+01 0.0000000000000000e+00  -1.8045695317380817e+00 -1.1510055585826901e+01 0.0000000000000000e+00  -7.5349861958175968e-01 -9.9684084794014218e+00 0.0000000000000000e+00  -8.0921466783616436e-01 -1.0007360939882425e+01 0.0000000000000000e+00  1.9876075344138128e-01 -9.6255780266936810e+00 0.0000000000000000e+00  -7.8853072500852306e-01 -9.7995566235552083e+00 0.0000000000000000e+00  -1.8066930032850805e+00 -9.9693071052223825e+00 0.0000000000000000e+00  -1.7408664281890556e+00 -9.2693336887297697e+00 0.0000000000000000e+00  -1.8085846550012306e+00 -9.9925519611608955e+00 0.0000000000000000e+00  -1.6613463211841599e+00 -9.6258100918306315e+00 0.0000000000000000e+00  -1.6468126206119069e+00 -9.5711016409530885e+00 0.0000000000000000e+00  -1.5797349528148250e+00 -8.9270778454853126e+00 0.0000000000000000e+00  -1.3310782881698793e+00 -9.8980271257338952e+00 0.0000000000000000e+00  -8.4756761489652410e-01 -1.0282215778113487e+01 0.0000000000000000e+00  -1.8300593671881582e+00 -1.0265979927484985e+01 0.0000000000000000e+00  -1.6702176887688853e+00 -9.9496639638217967e+00 0.0000000000000000e+00  -6.7068051410437912e-01 -6.5101793787061526e+00 0.0000000000000000e+00  -6.8245813399152544e-01 -6.5180850843075087e+00 0.0000000000000000e+00  -1.9707200506567477e-02 -6.2862825571643031e+00 0.0000000000000000e+00  -6.5236560259716680e-01 -6.1958912398999946e+00 0.0000000000000000e+00  -1.3437954464032622e+00 -6.4895437055253371e+00 0.0000000000000000e+00  -1.2304212333364659e+00 -5.6129116368625072e+00 0.0000000000000000e+00  -1.3344344117097788e+00 -6.4941592790743270e+00 0.0000000000000000e+00  -1.2318856420833464e+00 -6.2567711702735558e+00 0.0000000000000000e+00  -1.2223746758128451e+00 -6.2218570571103058e+00 0.0000000000000000e+00  -1.1191702710795528e+00 -5.3864518489408262e+00 0.0000000000000000e+00  -1.0210535107820817e+00 -6.4395013772975380e+00 0.0000000000000000e+00  -7.2675595894037581e-01 -6.8876086119196360e+00 0.0000000000000000e+00  -1.3999968378535543e+00 -7.0804413124211099e+00 0.0000000000000000e+00  -1.2911236956115015e+00 -6.8815837782232787e+00 0.0000000000000000e+00  -4.4417496991524158e-01 -2.0365723739513153e+00 0.0000000000000000e+00  -4.4707354615836753e-01 -2.0354702482749563e+00 0.0000000000000000e+00  -2.2885873908703799e-01 -1.9862945101892397e+00 0.0000000000000000e+00  -4.1301831083050372e-01 -1.6466817933748930e+00 0.0000000000000000e+00  -6.5607856038256607e-01 -2.0030469366277761e+00 0.0000000000000000e+00  -5.2968865944933174e-01 -1.1007749346010844e+00 0.0000000000000000e+00  -6.5347194288059973e-01 -2.0046112961512277e+00 0.0000000000000000e+00  -6.1267791675179251e-01 -1.9336018856772472e+00 0.0000000000000000e+00  -6.0813150652531256e-01 -1.9229267630742009e+00 0.0000000000000000e+00  -4.8549758217966504e-01 -1.0248552269421756e+00 0.0000000000000000e+00  -5.5191735673858378e-01 -1.9988229386124603e+00 0.0000000000000000e+00  -4.8139803178781276e-01 -2.4368302997387570e+00 0.0000000000000000e+00  -7.5720130792401108e-01 -2.8216346823014322e+00 0.0000000000000000e+00  -7.1627187908247503e-01 -2.7688679083796872e+00 0.0000000000000000e+00  -1.4446014886103761e-01 2.7533434350079316e+00 0.0000000000000000e+00  -1.4762964344098287e-01 2.7499510906814355e+00 0.0000000000000000e+00  -4.0711252507082946e-01 2.6100918377331062e+00 0.0000000000000000e+00  -1.1754730835683613e-01 3.1417119636621886e+00 0.0000000000000000e+00  1.3257133085263706e-01 2.7866811960548983e+00 0.0000000000000000e+00  2.5181125455873493e-01 3.5735122476194916e+00 0.0000000000000000e+00  1.2609390905961881e-01 2.7845995972255180e+00 0.0000000000000000e+00  9.9451916772165305e-02 2.6792733631350920e+00 0.0000000000000000e+00  9.7903374936072554e-02 2.6640867393052301e+00 0.0000000000000000e+00  2.2048031535780527e-01 3.4867349413999507e+00 0.0000000000000000e+00  -8.7680459123990156e-04 2.7406610932163824e+00 0.0000000000000000e+00  -1.8795615124351292e-01 2.3674292032559356e+00 0.0000000000000000e+00  7.4358041236049577e-03 1.8755828222380613e+00 0.0000000000000000e+00  -2.5484803326122445e-02 1.7669374612184900e+00 0.0000000000000000e+00  1.4001302608200528e-01 7.0919920885701258e+00 0.0000000000000000e+00  1.7701726957844249e-01 7.1196576224303758e+00 0.0000000000000000e+00  -5.2212825867502333e-01 6.8102925650143593e+00 0.0000000000000000e+00  1.9463546484115704e-01 7.4523743905324498e+00 0.0000000000000000e+00  8.8868265240119326e-01 7.1359446765278651e+00 0.0000000000000000e+00  9.9975687490455500e-01 7.7096556617362397e+00 0.0000000000000000e+00  8.8976944428784821e-01 7.1532873832579833e+00 0.0000000000000000e+00  7.9932983212576347e-01 6.8870449605279198e+00 0.0000000000000000e+00  7.9131708648897603e-01 6.8473092507579789e+00 0.0000000000000000e+00  8.9590391209995068e-01 7.4724362601334162e+00 0.0000000000000000e+00  5.5379610148468916e-01 7.0661079628809169e+00 0.0000000000000000e+00  1.3755089172505608e-01 6.8148773166292980e+00 0.0000000000000000e+00  7.7400962493372327e-01 6.2896282314999503e+00 0.0000000000000000e+00  6.7193038414487494e-01 6.0355971299630529e+00 0.0000000000000000e+00  4.6244730488825597e-01 1.0397503680662286e+01 0.0000000000000000e+00  4.7810441934859876e-01 1.0408498841570731e+01 0.0000000000000000e+00  -5.5442385858608856e-01 9.9767836730262456e+00 0.0000000000000000e+00  5.5742656161211956e-01 1.0687601592262940e+01 0.0000000000000000e+00  1.5341086043815217e+00 1.0426123408033444e+01 0.0000000000000000e+00  1.5797764057128059e+00 1.0648759913861893e+01 0.0000000000000000e+00  1.5191444759720758e+00 1.0432306032604155e+01 0.0000000000000000e+00  1.3791850798548602e+00 1.0045834975282828e+01 0.0000000000000000e+00  1.3665491528008342e+00 9.9893798917377659e+00 0.0000000000000000e+00  1.4290097082015369e+00 1.0313495305915129e+01 0.0000000000000000e+00  1.0254586309817175e+00 1.0316194149852798e+01 0.0000000000000000e+00  4.9697476909377575e-01 1.0257691764919871e+01 0.0000000000000000e+00  1.4124152639456820e+00 9.7264288717641438e+00 0.0000000000000000e+00  1.2599041876994819e+00 9.3805839740858268e+00 0.0000000000000000e+00  6.8747062390132552e-01 1.2092359311635779e+01 0.0000000000000000e+00  7.0404640451181844e-01 1.2103790463406787e+01 0.0000000000000000e+00  -5.0008149585612505e-01 1.1617416473426760e+01 0.0000000000000000e+00  7.5443407181366762e-01 1.2220862675603335e+01 0.0000000000000000e+00  1.9350164722810022e+00 1.2109336578443152e+01 0.0000000000000000e+00  1.9312943677118983e+00 1.1972927494987536e+01 0.0000000000000000e+00  1.9172064895235530e+00 1.2116712606767248e+01 0.0000000000000000e+00  1.7491736764342234e+00 1.1669125559038955e+01 0.0000000000000000e+00  1.7335292570762655e+00 1.1603444722685632e+01 0.0000000000000000e+00  1.7467096542019014e+00 1.1580300789151432e+01 0.0000000000000000e+00  1.3416592505333922e+00 1.1988492012721602e+01 0.0000000000000000e+00  6.8324571995103278e-01 1.2073266979593777e+01 0.0000000000000000e+00  1.8582535809906058e+00 1.1714252657572938e+01 0.0000000000000000e+00  1.6725538114820548e+00 1.1301835138030135e+01 0.0000000000000000e+00  7.9663197071812497e-01 1.1918587762551043e+01 0.0000000000000000e+00  8.1469843471144920e-01 1.1927742567592221e+01 0.0000000000000000e+00  -3.8278378795790635e-01 1.1460556036991715e+01 0.0000000000000000e+00  7.8202552535481418e-01 1.1848805646422484e+01 0.0000000000000000e+00  2.0332794507515097e+00 1.1927135559882485e+01 0.0000000000000000e+00  2.0007417111687551e+00 1.1486879368962061e+01 0.0000000000000000e+00  2.0157810642914713e+00 1.1934043594993931e+01 0.0000000000000000e+00  1.8453805481178969e+00 1.1497057985704147e+01 0.0000000000000000e+00  1.8305014939880380e+00 1.1433717327002558e+01 0.0000000000000000e+00  1.8079283464324583e+00 1.1081532164731343e+01 0.0000000000000000e+00  1.4438918708973936e+00 1.1811661128917375e+01 0.0000000000000000e+00  8.0674351411996903e-01 1.2052497465789074e+01 0.0000000000000000e+00  2.0010643141768831e+00 1.1875573136851598e+01 0.0000000000000000e+00  1.8151665482783192e+00 1.1477970860027872e+01 0.0000000000000000e+00  7.7839921258851430e-01 9.9798785816507589e+00 0.0000000000000000e+00  8.3558021029598695e-01 1.0018102455070444e+01 0.0000000000000000e+00  -1.7561231612926440e-01 9.6370851685901133e+00 0.0000000000000000e+00  8.4911774491101522e-01 9.8254415801184312e+00 0.0000000000000000e+00  1.8337157382933931e+00 9.9784313984129422e+00 0.0000000000000000e+00  1.7577583343400829e+00 9.2619849935211409e+00 0.0000000000000000e+00  1.8366148318131279e+00 1.0002262684098140e+01 0.0000000000000000e+00  1.6873171903063080e+00 9.6334327337919810e+00 0.0000000000000000e+00  1.6722276149652053e+00 9.5781033293028202e+00 0.0000000000000000e+00  1.5953888195951282e+00 8.9316917352753080e+00 0.0000000000000000e+00  1.3577097137645975e+00 9.9079363779798477e+00 0.0000000000000000e+00  8.4158183342560622e-01 1.0277621005530829e+01 0.0000000000000000e+00  1.8656414073291208e+00 1.0289035234913738e+01 0.0000000000000000e+00  1.7042348188321399e+00 9.9582624827955062e+00 0.0000000000000000e+00  6.6484920487177568e-01 6.4992959286308105e+00 0.0000000000000000e+00  7.0162169813011566e-01 6.5229474834526364e+00 0.0000000000000000e+00  3.6076599186104917e-02 6.2901617457960279e+00 0.0000000000000000e+00  6.9401200642922478e-01 6.2061348127328761e+00 0.0000000000000000e+00  1.3550138201676598e+00 6.4832900722120002e+00 0.0000000000000000e+00  1.2456695659707402e+00 5.6062164601394269e+00 0.0000000000000000e+00  1.3569764891196241e+00 6.4983906021217601e+00 0.0000000000000000e+00  1.2545441883333650e+00 6.2610861422213411e+00 0.0000000000000000e+00  1.2438719680644672e+00 6.2256421314202903e+00 0.0000000000000000e+00  1.1343278491025361e+00 5.3890258708660737e+00 0.0000000000000000e+00  1.0425843701743731e+00 6.4440145141909309e+00 0.0000000000000000e+00  7.2498847230330377e-01 6.8817805933242413e+00 0.0000000000000000e+00  1.4303826138596951e+00 7.0986351241982977e+00 0.0000000000000000e+00  1.3209694073832894e+00 6.8917017356932417e+00 0.0000000000000000e+00  4.6258401771797952e-01 1.7917211468927174e+00 0.0000000000000000e+00  4.6579737876767829e-01 1.7801929712649305e+00 0.0000000000000000e+00  6.1555778870651567e-01 1.5957241899204719e+00 0.0000000000000000e+00  5.7296078711731613e-01 1.2689942986259337e+00 0.0000000000000000e+00  5.6737687466282616e-01 1.2000613532737165e+00 0.0000000000000000e+00  6.0442075697557041e-01 1.5127649682143720e+00 0.0000000000000000e+00  6.2299998758555719e-01 2.0010608611396590e+00 0.0000000000000000e+00  6.2366898038850682e-01 2.0009521950465432e+00 0.0000000000000000e+00  5.7915718201205990e-01 1.5269120856505709e+00 0.0000000000000000e+00  5.2702291137603496e-01 1.1908815989975905e+00 0.0000000000000000e+00  5.1164017901688752e-01 1.0898326681436608e+00 0.0000000000000000e+00  5.6699481863758794e-01 1.4493458867510782e+00 0.0000000000000000e+00  5.0198984304511640e-01 2.3177630461289072e+00 0.0000000000000000e+00  5.1802648259339268e-01 2.3438851227382300e+00 0.0000000000000000e+00  7.2789003348679526e-01 2.4455797941391406e+00 0.0000000000000000e+00  7.7372945694249273e-01 2.7547728375586900e+00 0.0000000000000000e+00  7.6017017906656736e-01 2.6762114550820257e+00 0.0000000000000000e+00  7.1700477011061614e-01 2.3734771212072503e+00 0.0000000000000000e+00  7.1495923661243399e-01 2.6158989080197226e+00 0.0000000000000000e+00  6.8412941858023479e-01 2.3301915799723849e+00 0.0000000000000000e+00  6.9202324779409174e-01 2.3947429600248626e+00 0.0000000000000000e+00  7.2621921505775355e-01 2.7032138997896471e+00 0.0000000000000000e+00  1.2021799709852553e-01 -3.0403959870064954e+00 0.0000000000000000e+00  1.1231624510903333e-01 -3.0660470274108609e+00 0.0000000000000000e+00  -1.7302835308334794e-01 -3.2057826316614917e+00 0.0000000000000000e+00  -2.2293526037882516e-01 -3.5117543483280813e+00 0.0000000000000000e+00  -2.0674280525288577e-01 -3.4296860842250032e+00 0.0000000000000000e+00  -1.5975123206367903e-01 -3.1363920206722056e+00 0.0000000000000000e+00  -4.6114177011726869e-02 -2.7580822554700788e+00 0.0000000000000000e+00  -4.5227767412632278e-02 -2.7577580283507994e+00 0.0000000000000000e+00  -1.7718122740787093e-01 -3.3357175369421888e+00 0.0000000000000000e+00  -1.3812269757760084e-01 -3.0648821892476978e+00 0.0000000000000000e+00  -1.4830134772022557e-01 -3.1259233854383819e+00 0.0000000000000000e+00  -1.9172538048318316e-01 -3.4191080951219237e+00 0.0000000000000000e+00  1.9114316933721687e-01 -2.5073106404973289e+00 0.0000000000000000e+00  1.6969089463475992e-01 -2.5096441246452388e+00 0.0000000000000000e+00  -4.1248999621326769e-02 -2.2850847783318935e+00 0.0000000000000000e+00  -3.0937702205526513e-03 -1.9771818545138322e+00 0.0000000000000000e+00  -1.9116532921626520e-02 -2.0503819712228473e+00 0.0000000000000000e+00  -5.1863985888338973e-02 -2.3692897137941200e+00 0.0000000000000000e+00  2.2020165679918994e-02 -1.9278117668545056e+00 0.0000000000000000e+00  -2.6349463378336362e-02 -2.2724430394391049e+00 0.0000000000000000e+00  -1.4859066773896670e-02 -2.1928299348968343e+00 0.0000000000000000e+00  3.7081859100285150e-02 -1.8266086328073847e+00 0.0000000000000000e+00  -1.7369269919347410e-01 -7.3506707880568616e+00 0.0000000000000000e+00  -2.4778071773744223e-01 -7.4269227518071936e+00 0.0000000000000000e+00  -9.1591126031856429e-01 -7.4221419541377234e+00 0.0000000000000000e+00  -9.7129730484682497e-01 -7.6751291691784189e+00 0.0000000000000000e+00  -9.7675298003576150e-01 -7.6277043794033874e+00 0.0000000000000000e+00  -9.0375316144511930e-01 -7.3766185947703864e+00 0.0000000000000000e+00  -6.9935961371777255e-01 -7.0796171532864154e+00 0.0000000000000000e+00  -6.9751924912753960e-01 -7.0810127464796260e+00 0.0000000000000000e+00  -8.5013213401695442e-01 -7.3431549508081764e+00 0.0000000000000000e+00  -8.2752166694503382e-01 -7.1766503091535068e+00 0.0000000000000000e+00  -8.3357001956700738e-01 -7.2126821656647984e+00 0.0000000000000000e+00  -8.5910607350929813e-01 -7.3959510406573390e+00 0.0000000000000000e+00  -1.