<?xml version="1.0"?>
<VTKFile type="UnstructuredGrid"  version="0.1"  >
<UnstructuredGrid>
<Piece  NumberOfPoints="4160" NumberOfCells="16142">
<Points>
<DataArray  type="Float64"  NumberOfComponents="3"  format="ascii">0.175 0 0  0.18445 0 0  0.175 0.00945 0  0.16555 0 0  0.193 0 0  0.175 0.018 0  0.157 0 0  0.175 0 0.006  0.193 0 0.006  0.175 0.018 0.006  0.157 0 0.006  0.175 -0.00945 0  0.175 -0.018 0  0.175 -0.018 0.006  0.1529482566072435 0.0633532422280406 0  0.1704095797717068 0.07058595909974082 0  0.1616789181894752 0.06696960066389071 0  0.1580625597536251 0.07570026224612236 0  0.145049086604272 0.0600812988813191 0  0.1547906164069036 0.08359943224909387 0  0.1783087497746783 0.07385790244646231 0  0.1783087497746783 0.07385790244646231 0.006  0.145049086604272 0.0600812988813191 0.006  0.1547906164069036 0.08359943224909387 0.006  0.1616789181894752 0.06696960066389071 0.006  0.1652952766253253 0.05823893908165905 0  0.1685672199720468 0.05033976907868755 0  0.1685672199720468 0.05033976907868755 0.006  0.1170615276254329 0.1170615276254329 0  0.1304258457898587 0.1304258457898587 0  0.1237436867076458 0.1237436867076458 0  0.117061527625433 0.1304258457898587 0  0.111015764646288 0.111015764646288 0  0.111015764646288 0.1364716087690037 0  0.1364716087690037 0.1364716087690036 0  0.1364716087690037 0.1364716087690036 0.006  0.111015764646288 0.111015764646288 0.006  0.111015764646288 0.1364716087690037 0.006  0.1237436867076458 0.1237436867076458 0.006  0.1304258457898587 0.1170615276254329 0  0.1364716087690037 0.1110157646462879 0  0.1364716087690037 0.1110157646462879 0.006  0.06335324222804062 0.1529482566072435 0  0.07058595909974082 0.1704095797717068 0  0.06696960066389071 0.1616789181894752 0  0.05823893908165905 0.1652952766253253 0  0.06008129888131911 0.145049086604272 0  0.05033976907868755 0.1685672199720468 0  0.07385790244646233 0.1783087497746783 0  0.07385790244646233 0.1783087497746783 0.006  0.06008129888131911 0.145049086604272 0.006  0.05033976907868755 0.1685672199720468 0.006  0.06696960066389071 0.1616789181894752 0.006  0.07570026224612236 0.1580625597536251 0  0.08359943224909387 0.1547906164069036 0  0.08359943224909387 0.1547906164069036 0.006  1.013701387994221e-17 0.16555 0  1.129430510513647e-17 0.18445 0  1.071565949253934e-17 0.175 0  -0.00944999999999999 0.175 0  9.613477373306723e-18 0.157 0  -0.01799999999999999 0.175 0  1.181784161177196e-17 0.193 0  1.181784161177196e-17 0.193 0.006  9.613477373306723e-18 0.157 0.006  -0.01799999999999999 0.175 0.006  1.071565949253934e-17 0.175 0.006  0.00945000000000001 0.175 0  0.01800000000000001 0.175 0  0.01800000000000001 0.175 0.006  -0.06335324222804059 0.1529482566072435 0  -0.0705859590997408 0.1704095797717068 0  -0.0669696006638907 0.1616789181894752 0  -0.07570026224612236 0.1580625597536251 0  -0.06008129888131909 0.145049086604272 0  -0.08359943224909386 0.1547906164069036 0  -0.07385790244646231 0.1783087497746783 0  -0.07385790244646231 0.1783087497746783 0.006  -0.06008129888131909 0.145049086604272 0.006  -0.08359943224909386 0.1547906164069036 0.006  -0.0669696006638907 0.1616789181894752 0.006  -0.05823893908165904 0.1652952766253253 0  -0.05033976907868754 0.1685672199720468 0  -0.05033976907868754 0.1685672199720468 0.006  -0.1170615276254329 0.1170615276254329 0  -0.1304258457898587 0.1304258457898587 0  -0.1237436867076458 0.1237436867076458 0  -0.1304258457898587 0.117061527625433 0  -0.111015764646288 0.111015764646288 0  -0.1364716087690037 0.111015764646288 0  -0.1364716087690036 0.1364716087690037 0  -0.1364716087690036 0.1364716087690037 0.006  -0.111015764646288 0.111015764646288 0.006  -0.1364716087690037 0.111015764646288 0.006  -0.1237436867076458 0.1237436867076458 0.006  -0.1170615276254329 0.1304258457898587 0  -0.1110157646462879 0.1364716087690037 0  -0.1110157646462879 0.1364716087690037 0.006  -0.1529482566072435 0.06335324222804062 0  -0.1704095797717068 0.07058595909974083 0  -0.1616789181894752 0.06696960066389072 0  -0.1652952766253253 0.05823893908165906 0  -0.145049086604272 0.06008129888131911 0  -0.1685672199720468 0.05033976907868756 0  -0.1783087497746783 0.07385790244646234 0  -0.1783087497746783 0.07385790244646234 0.006  -0.145049086604272 0.06008129888131911 0.006  -0.1685672199720468 0.05033976907868756 0.006  -0.1616789181894752 0.06696960066389072 0.006  -0.1580625597536251 0.07570026224612239 0  -0.1547906164069036 0.08359943224909389 0  -0.1547906164069036 0.08359943224909389 0.006  -0.16555 2.027402775988443e-17 0  -0.18445 2.258861021027293e-17 0  -0.175 2.143131898507868e-17 0  -0.175 -0.009449999999999979 0  -0.157 1.922695474661345e-17 0  -0.175 -0.01799999999999998 0  -0.193 2.363568322354391e-17 0  -0.193 2.363568322354391e-17 0.006  -0.157 1.922695474661345e-17 0.006  -0.175 -0.01799999999999998 0.006  -0.175 2.143131898507868e-17 0.006  -0.175 0.009450000000000021 0  -0.175 0.01800000000000002 0  -0.175 0.01800000000000002 0.006  -0.1529482566072435 -0.06335324222804059 0  -0.1704095797717069 -0.07058595909974079 0  -0.1616789181894752 -0.06696960066389068 0  -0.1580625597536251 -0.07570026224612235 0  -0.145049086604272 -0.06008129888131908 0  -0.1547906164069036 -0.08359943224909384 0  -0.1783087497746783 -0.0738579024464623 0  -0.1783087497746783 -0.0738579024464623 0.006  -0.145049086604272 -0.06008129888131908 0.006  -0.1547906164069036 -0.08359943224909384 0.006  -0.1616789181894752 -0.06696960066389068 0.006  -0.1652952766253253 -0.05823893908165902 0  -0.1685672199720468 -0.05033976907868752 0  -0.1685672199720468 -0.05033976907868752 0.006  -0.117061527625433 -0.1170615276254329 0  -0.1304258457898587 -0.1304258457898587 0  -0.1237436867076458 -0.1237436867076458 0  -0.117061527625433 -0.1304258457898587 0  -0.111015764646288 -0.111015764646288 0  -0.111015764646288 -0.1364716087690037 0  -0.1364716087690037 -0.1364716087690036 0  -0.1364716087690037 -0.1364716087690036 0.006  -0.111015764646288 -0.111015764646288 0.006  -0.111015764646288 -0.1364716087690037 0.006  -0.1237436867076458 -0.1237436867076458 0.006  -0.1304258457898587 -0.1170615276254329 0  -0.1364716087690037 -0.1110157646462879 0  -0.1364716087690037 -0.1110157646462879 0.006  -0.0633532422280407 -0.1529482566072435 0  -0.07058595909974091 -0.1704095797717068 0  -0.06696960066389081 -0.1616789181894751 0  -0.05823893908165915 -0.1652952766253252 0  -0.06008129888131918 -0.145049086604272 0  -0.05033976907868765 -0.1685672199720468 0  -0.07385790244646243 -0.1783087497746783 0  -0.07385790244646243 -0.1783087497746783 0.006  -0.06008129888131918 -0.145049086604272 0.006  -0.05033976907868765 -0.1685672199720468 0.006  -0.06696960066389081 -0.1616789181894751 0.006  -0.07570026224612246 -0.158062559753625 0  -0.08359943224909397 -0.1547906164069035 0  -0.08359943224909397 -0.1547906164069035 0.006  -3.041104163982664e-17 -0.16555 0  -3.388291531540939e-17 -0.18445 0  -3.214697847761802e-17 -0.175 0  0.009449999999999967 -0.175 0  -2.884043211992017e-17 -0.157 0  0.01799999999999997 -0.175 0  -3.545352483531587e-17 -0.193 0  -3.545352483531587e-17 -0.193 0.006  -2.884043211992017e-17 -0.157 0.006  0.01799999999999997 -0.175 0.006  -3.214697847761802e-17 -0.175 0.006  -0.009450000000000033 -0.175 0  -0.01800000000000003 -0.175 0  -0.01800000000000003 -0.175 0.006  0.06335324222804065 -0.1529482566072435 0  0.07058595909974086 -0.1704095797717068 0  0.06696960066389075 -0.1616789181894752 0  0.07570026224612242 -0.1580625597536251 0  0.06008129888131913 -0.145049086604272 0  0.08359943224909391 -0.1547906164069035 0  0.07385790244646236 -0.1783087497746783 0  0.07385790244646236 -0.1783087497746783 0.006  0.06008129888131913 -0.145049086604272 0.006  0.08359943224909391 -0.1547906164069035 0.006  0.06696960066389075 -0.1616789181894752 0.006  0.05823893908165909 -0.1652952766253253 0  0.05033976907868759 -0.1685672199720468 0  0.05033976907868759 -0.1685672199720468 0.006  0.1170615276254329 -0.117061527625433 0  0.1304258457898587 -0.1304258457898587 0  0.1237436867076458 -0.1237436867076458 0  0.1304258457898587 -0.117061527625433 0  0.1110157646462879 -0.111015764646288 0  0.1364716087690036 -0.111015764646288 0  0.1364716087690036 -0.1364716087690037 0  0.1364716087690036 -0.1364716087690037 0.006  0.1110157646462879 -0.111015764646288 0.006  0.1364716087690036 -0.111015764646288 0.006  0.1237436867076458 -0.1237436867076458 0.006  0.1170615276254329 -0.1304258457898587 0  0.1110157646462879 -0.1364716087690037 0  0.1110157646462879 -0.1364716087690037 0.006  0.1529482566072435 -0.0633532422280407 0  0.1704095797717068 -0.07058595909974093 0  0.1616789181894751 -0.06696960066389081 0  0.1652952766253252 -0.05823893908165915 0  0.145049086604272 -0.06008129888131919 0  0.1685672199720468 -0.05033976907868765 0  0.1783087497746783 -0.07385790244646244 0  0.1783087497746783 -0.07385790244646244 0.006  0.145049086604272 -0.06008129888131919 0.006  0.1685672199720468 -0.05033976907868765 0.006  0.1616789181894751 -0.06696960066389081 0.006  0.158062559753625 -0.07570026224612246 0  0.1547906164069035 -0.08359943224909397 0  0.1547906164069035 -0.08359943224909397 0.006  0.1816821590571039 0.006682159107321884 0  0.1683178408904039 0.006682159054829612 0  0.1905884572626798 0.009000000009422473 0  0.1839999999697972 0.01558845728555746 0  0.1659999999713115 0.01558845725155659 0  0.1594115427217315 0.008999999982422135 0  0.1659999999999918 0 0.006  0.1839999999999864 0 0.006  0.1905884572626798 0.009000000009422473 0.006  0.1839999999697972 0.01558845728555746 0.006  0.1659999999713115 0.01558845725155659 0.006  0.1594115427217315 0.008999999982422135 0.006  0.1816821590822129 -0.006682159082212883 0  0.1683178409177871 -0.006682159082212875 0  0.1594115427217313 -0.008999999982421729 0  0.1659999999713265 -0.01558845725156525 0  0.1839999999697972 -0.01558845728555747 0  0.1905884572626846 -0.009000000009414219 0  0.1839999999697972 -0.01558845728555747 0.006  0.1905884572626846 -0.00
[...]
<PointData  Vectors="f_1287"> 
<DataArray  type="Float64"  Name="f_1287"  NumberOfComponents="3" format="ascii">4.2463255046229376e-01 -1.1812188393036310e+01 0.0000000000000000e+00  -8.0195152378164436e-01 -1.2299017078652726e+01 0.0000000000000000e+00  -7.3948754488486645e-01 -1.2331240274808540e+01 0.0000000000000000e+00  -7.3629676696551394e-01 -1.2252453135164613e+01 0.0000000000000000e+00  -2.0299512207957306e+00 -1.2302665005736612e+01 0.0000000000000000e+00  -1.9630959080175432e+00 -1.2093265403115740e+01 0.0000000000000000e+00  -2.0283051021201239e+00 -1.2274470899628106e+01 0.0000000000000000e+00  -1.4467810954804616e+00 -1.2176744168887915e+01 0.0000000000000000e+00  -1.8562046586246124e+00 -1.1849767433455710e+01 0.0000000000000000e+00  -1.7645297670049922e+00 -1.1676138460359448e+01 0.0000000000000000e+00  -1.8396731548806722e+00 -1.1782679577451313e+01 0.0000000000000000e+00  -8.6300286675221594e-01 -1.2326966965492803e+01 0.0000000000000000e+00  -2.0543612410913386e+00 -1.1963583323753118e+01 0.0000000000000000e+00  -1.8640006111955603e+00 -1.1564251879911554e+01 0.0000000000000000e+00  -3.6729003800075316e-01 -1.1580445691128224e+01 0.0000000000000000e+00  -4.2751784382136826e-01 -1.1626360948601697e+01 0.0000000000000000e+00  7.1736284692206498e-01 -1.1134012525407901e+01 0.0000000000000000e+00  -3.5448841391779479e-01 -1.1500772800793472e+01 0.0000000000000000e+00  -1.5847905086199363e+00 -1.1633961480733817e+01 0.0000000000000000e+00  -1.4828061669478352e+00 -1.1125439602096357e+01 0.0000000000000000e+00  -1.5863883290946321e+00 -1.1661457846925133e+01 0.0000000000000000e+00  -1.4343670934435806e+00 -1.1228198327305618e+01 0.0000000000000000e+00  -1.4198090075750811e+00 -1.1163602165495604e+01 0.0000000000000000e+00  -1.3059032970317486e+00 -1.0720981470348439e+01 0.0000000000000000e+00  -1.0382344022524941e+00 -1.1527222712882292e+01 0.0000000000000000e+00  -4.6080933272376245e-01 -1.1792520443291124e+01 0.0000000000000000e+00  -1.6739383977328304e+00 -1.1697244275612691e+01 0.0000000000000000e+00  -1.5062472900347132e+00 -1.1303129171969108e+01 0.0000000000000000e+00  6.7990245728951862e-02 -9.1146533091106434e+00 0.0000000000000000e+00  1.9535662037925901e-02 -9.1535868343499089e+00 0.0000000000000000e+00  9.0654439599666903e-01 -8.7314586458308892e+00 0.0000000000000000e+00  7.0784322180158843e-02 -8.9107484867528228e+00 0.0000000000000000e+00  -8.9197400226834234e-01 -9.1970933775934398e+00 0.0000000000000000e+00  -7.6624287295684168e-01 -8.4386099341278182e+00 0.0000000000000000e+00  -8.9279818271927114e-01 -9.2190627329724357e+00 0.0000000000000000e+00  -7.8657163067591673e-01 -8.8747806076022027e+00 0.0000000000000000e+00  -7.7686910299932277e-01 -8.8235029467945161e+00 0.0000000000000000e+00  -6.4383576723302094e-01 -8.1137000841892846e+00 0.0000000000000000e+00  -4.6489329652189926e-01 -9.0960778621745515e+00 0.0000000000000000e+00  -1.4155111137089500e-03 -9.4286321558839727e+00 0.0000000000000000e+00  -1.0225085392864535e+00 -9.6068136534760278e+00 0.0000000000000000e+00  -8.9741398085256696e-01 -9.2944850106731423e+00 0.0000000000000000e+00  4.8324721746328786e-01 -5.2787893033555253e+00 0.0000000000000000e+00  4.5697837660505208e-01 -5.3039935823329154e+00 0.0000000000000000e+00  9.5118659997858412e-01 -5.0156220474394857e+00 0.0000000000000000e+00  4.8295277189418606e-01 -4.9732743863368123e+00 0.0000000000000000e+00  -6.7722382339973491e-02 -5.3721175513910095e+00 0.0000000000000000e+00  6.2763830375201515e-02 -4.4707180640470305e+00 0.0000000000000000e+00  -6.7225633773912177e-02 -5.3852036847208877e+00 0.0000000000000000e+00  -2.2253437949749912e-02 -5.1801904366575258e+00 0.0000000000000000e+00  -1.9026431449985563e-02 -5.1496981498997654e+00 0.0000000000000000e+00  1.1853429183621671e-01 -4.2786231352173871e+00 0.0000000000000000e+00  1.7420542529050276e-01 -5.2935395546256236e+00 0.0000000000000000e+00  3.9973174957992519e-01 -5.6939790679014592e+00 0.0000000000000000e+00  -2.0658022794219078e-01 -6.0465989361188708e+00 0.0000000000000000e+00  -1.5242228377205957e-01 -5.8734190250003957e+00 0.0000000000000000e+00  8.3184094839031508e-01 -6.3523932797370530e-01 0.0000000000000000e+00  8.3109297892530487e-01 -6.3948621466671729e-01 0.0000000000000000e+00  8.5570339714203125e-01 -5.2979495016513001e-01 0.0000000000000000e+00  8.7288434589177777e-01 -2.4137897812779444e-01 0.0000000000000000e+00  7.7116707745450475e-01 -7.2755005900890346e-01 0.0000000000000000e+00  8.7684798679361464e-01 1.6418742480728016e-01 0.0000000000000000e+00  7.7249739920534921e-01 -7.2685249869671797e-01 0.0000000000000000e+00  7.4894536962112068e-01 -6.9303244907058992e-01 0.0000000000000000e+00  7.4506679725105562e-01 -6.8876445108013229e-01 0.0000000000000000e+00  8.5923667946801652e-01 2.0668074586372526e-01 0.0000000000000000e+00  7.9171084473599818e-01 -6.7925926512803758e-01 0.0000000000000000e+00  7.9570524436455226e-01 -1.0424222108306391e+00 0.0000000000000000e+00  6.3188612899677044e-01 -1.5869368825551056e+00 0.0000000000000000e+00  6.1002649114019802e-01 -1.5656073669850201e+00 0.0000000000000000e+00  1.0571220126790895e+00 4.1113233717119515e+00 0.0000000000000000e+00  1.0832984471530005e+00 4.1231517451013513e+00 0.0000000000000000e+00  6.3478502111941837e-01 4.0375474049671967e+00 0.0000000000000000e+00  1.1327843248078526e+00 4.5269986554700683e+00 0.0000000000000000e+00  1.4954485795144505e+00 4.0335416599745093e+00 0.0000000000000000e+00  1.5596625425035076e+00 4.7733496797294475e+00 0.0000000000000000e+00  1.4980960466098001e+00 4.0433507566631377e+00 0.0000000000000000e+00  1.4089258403768596e+00 3.9002243742677063e+00 0.0000000000000000e+00  1.3988319086687535e+00 3.8782248674196236e+00 0.0000000000000000e+00  1.4709888187747755e+00 4.6596730538655855e+00 0.0000000000000000e+00  1.2921062392906133e+00 4.0386210413213020e+00 0.0000000000000000e+00  1.0460421253407854e+00 3.7493022669471485e+00 0.0000000000000000e+00  1.3844873115379186e+00 3.1296643915090514e+00 0.0000000000000000e+00  1.2884319934434603e+00 2.9889671194957343e+00 0.0000000000000000e+00  1.1124622483846385e+00 8.2160126174241785e+00 0.0000000000000000e+00  1.1604136936969143e+00 8.2452562945526999e+00 0.0000000000000000e+00  3.0760206557246345e-01 7.9774743301326563e+00 0.0000000000000000e+00  1.1625026041611131e+00 8.5652434830441688e+00 0.0000000000000000e+00  1.9842312599425498e+00 8.1662352419452144e+00 0.0000000000000000e+00  2.0082531502931689e+00 8.6596897219545586e+00 0.0000000000000000e+00  1.9868869181995759e+00 8.1851668358448411e+00 0.0000000000000000e+00  1.8472301144301342e+00 7.8886285856811869e+00 0.0000000000000000e+00  1.8325806577633430e+00 7.8442135593394751e+00 0.0000000000000000e+00  1.8599263137354531e+00 8.3984823576320480e+00 0.0000000000000000e+00  1.5870414900848502e+00 8.1296424480565399e+00 0.0000000000000000e+00  1.1751162048845094e+00 7.9752450071322016e+00 0.0000000000000000e+00  1.9055724673251679e+00 7.3416322891656849e+00 0.0000000000000000e+00  1.7565870226499161e+00 7.0743708110510539e+00 0.0000000000000000e+00  1.0449664070505538e+00 1.1102123434813546e+01 0.0000000000000000e+00  1.0638428525951853e+00 1.1110528726355502e+01 0.0000000000000000e+00  -6.2106600679260111e-02 1.0704036643612666e+01 0.0000000000000000e+00  1.0450706924157080e+00 1.1314113013458904e+01 0.0000000000000000e+00  2.1921942029194521e+00 1.1074682265794010e+01 0.0000000000000000e+00  2.1473570993712947e+00 1.1221727514436814e+01 0.0000000000000000e+00  2.1760559498621879e+00 1.1081787899035781e+01 0.0000000000000000e+00  2.0054396105620302e+00 1.0676113420856217e+01 0.0000000000000000e+00  1.9899043095377373e+00 1.0616783754186624e+01 0.0000000000000000e+00  1.9636822190556864e+00 1.0856530800195745e+01 0.0000000000000000e+00  1.6426047335933256e+00 1.0982756924474764e+01 0.0000000000000000e+00  1.1045356776950677e+00 1.0980751359044053e+01 0.0000000000000000e+00  2.1449741197450738e+00 1.0443064076474487e+01 0.0000000000000000e+00  1.9613025755826030e+00 1.0082658499980385e+01 0.0000000000000000e+00  7.8215865081227143e-01 1.2273371783091077e+01 0.0000000000000000e+00  8.0142489656337712e-01 1.2284630425358229e+01 0.0000000000000000e+00  -4.2946540371638464e-01 1.1798983113615211e+01 0.0000000000000000e+00  7.7002164468932122e-01 1.2342253922778568e+01 0.0000000000000000e+00  2.0522683880644044e+00 1.2283841374819222e+01 0.0000000000000000e+00  1.9606930949866521e+00 1.2076822979996646e+01 0.0000000000000000e+00  2.0355646486928141e+00 1.2292165142957925e+01 0.0000000000000000e+00  1.8613742350997280e+00 1.1839603158940609e+01 0.0000000000000000e+00  1.8444889389124359e+00 1.1772816340090330e+01 0.0000000000000000e+00  1.7693848621790336e+00 1.1662974326447079e+01 0.0000000000000000e+00  1.4473035283930080e+00 1.2164946179665373e+01 0.0000000000000000e+00  8.2302320363729520e-01 1.2298959170505578e+01 0.0000000000000000e+00  2.0719049706824282e+00 1.1976848353481508e+01 0.0000000000000000e+00  1.8820710632836710e+00 1.1561617625111863e+01 0.0000000000000000e+00  4.4254858647922413e-01 1.1610594557300711e+01 0.0000000000000000e+00  4.2749240482072570e-01 1.1595535885391577e+01 0.0000000000000000e+00  -7.1478560597336738e-01 1.1107825802316329e+01 0.0000000000000000e+00  3.5712613199748428e-01 1.1472806880604798e+01 0.0000000000000000e+00  1.6167466817918921e+00 1.1644644490514901e+01 0.0000000000000000e+00  1.4862853365096838e+00 1.1104642547250068e+01 0.0000000000000000e+00  1.5884186030191185e+00 1.1636482564324481e+01 0.0000000000000000e+00  1.4358546835014603e+00 1.1205399650837197e+01 0.0000000000000000e+00  1.4237378752901317e+00 1.1143884038986746e+01 0.0000000000000000e+00  1.3084852430604039e+00 1.0701543606480806e+01 0.0000000000000000e+00  1.0389424548241000e+00 1.1500413571692091e+01 0.0000000000000000e+00  4.5973646087148329e-01 1.1763017391921393e+01 0.0000000000000000e+00  1.6753842000594632e+00 1.1672983778894050e+01 0.0000000000000000e+00  1.5082268863795194e+00 1.1281221203145641e+01 0.0000000000000000e+00  -5.6839247178369252e-02 9.1170653334439375e+00 0.0000000000000000e+00  -1.0350613977020589e-02 9.1530378547182139e+00 0.0000000000000000e+00  -8.9808823697610829e-01 8.7319662717573685e+00 0.0000000000000000e+00  -7.9088662464369200e-02 8.8935651882052440e+00 0.0000000000000000e+00  9.0309382936502169e-01 9.1987681449804697e+00 0.0000000000000000e+00  7.8265678259496363e-01 8.4471311564853959e+00 0.0000000000000000e+00  9.0382642782775935e-01 9.2203537647525611e+00 0.0000000000000000e+00  7.9638987631968061e-01 8.8754899485003023e+00 0.0000000000000000e+00  7.8747159588760074e-01 8.8247731022336247e+00 0.0000000000000000e+00  6.5370760474406464e-01 8.1188316157882259e+00 0.0000000000000000e+00  4.7519979551855113e-01 9.0969103842178178e+00 0.0000000000000000e+00  2.9867930321436923e-02 9.4484972073117870e+00 0.0000000000000000e+00  1.0280714461356135e+00 9.6029716001190160e+00 0.0000000000000000e+00  9.0874074720231024e-01 9.2933786265753060e+00 0.0000000000000000e+00  -4.5236575313526955e-01 5.3116585702044050e+00 0.0000000000000000e+00  -4.4586893154729407e-01 5.3157285388449189e+00 0.0000000000000000e+00  -9.4076444608429199e-01 5.0281271053195127e+00 0.0000000000000000e+00  -4.7097956139851627e-01 4.9862459733067226e+00 0.0000000000000000e+00  8.8236694068813529e-02 5.3943946939908738e+00 0.0000000000000000e+00  -4.9038272419716804e-02 4.4841020181308586e+00 0.0000000000000000e+00  8.0292550929105116e-02 5.3970679785045972e+00 0.0000000000000000e+00  3.4894547842184070e-02 5.1915668465854550e+00 0.0000000000000000e+00  3.2169288839976606e-02 5.1615708354951870e+00 0.0000000000000000e+00  -1.0505372396835735e-01 4.2917234880988202e+00 0.0000000000000000e+00  -1.6233681525220087e-01 5.3049907546504738e+00 0.0000000000000000e+00  -3.7957640673416526e-01 5.7163608083216859e+00 0.0000000000000000e+00  2.1855214892664843e-01 6.0577802604898059e+00 0.0000000000000000e+00  1.6589430968783245e-01 5.8844893970940397e+00 0.0000000000000000e+00  -8.1343020078449102e-01 6.6240882099625931e-01 0.0000000000000000e+00  -8.1407985478652756e-01 6.6138826811200013e-01 0.0000000000000000e+00  -8.4013921785606960e-01 5.5172721499405397e-01 0.0000000000000000e+00  -8.5463057880705984e-01 2.6167072377471168e-01 0.0000000000000000e+00  -7.5275718055127905e-01 7.4913624966537196e-01 0.0000000000000000e+00  -8.5721354039363584e-01 -1.3954117919146511e-01 0.0000000000000000e+00  -7.5421778685823238e-01 7.4798321185753569e-01 0.0000000000000000e+00  -7.3111419112711329e-01 7.1365263605981344e-01 0.0000000000000000e+00  -7.2724643688412272e-01 7.0935205787958333e-01 0.0000000000000000e+00  -8.4017919327025814e-01 -1.8310225636222890e-01 0.0000000000000000e+00  -7.7404119467717414e-01 7.0067919328142869e-01 0.0000000000000000e+00  -7.7906734697850921e-01 1.0639722435059917e+00 0.0000000000000000e+00  -6.1472281715540333e-01 1.6065465648668293e+00 0.0000000000000000e+00  -5.9334595348640429e-01 1.5845591669971288e+00 0.0000000000000000e+00  -1.0447914197927963e+00 -4.0788160683052945e+00 0.0000000000000000e+00  -1.0523084359759360e+00 -4.0835882068915526e+00 0.0000000000000000e+00  -6.0693947232473011e-01 -3.9997579182687151e+00 0.0000000000000000e+00  -1.0654932998362463e+00 -4.4687934790316595e+00 0.0000000000000000e+00  -1.4746110168875530e+00 -4.0036988879065172e+00 0.0000000000000000e+00  -1.5404835036462436e+00 -4.7464933495406516e+00 0.0000000000000000e+00  -1.4690312667447143e+00 -4.0074227319110660e+00 0.0000000000000000e+00  -1.3816022153795546e+00 -3.8670022656599370e+00 0.0000000000000000e+00  -1.3723182059031960e+00 -3.8459864534339507e+00 0.0000000000000000e+00  -1.4488085933466253e+00 -4.6307204541111382e+00 0.0000000000000000e+00  -1.2628805868805604e+00 -4.0023937524162285e+00 0.0000000000000000e+00  -1.0277253859015645e+00 -3.7164860041680416e+00 0.0000000000000000e+00  -1.3542703914745695e+00 -3.0932347349298293e+00 0.0000000000000000e+00  -1.2625009119299373e+00 -2.9554831006673741e+00 0.0000000000000000e+00  -1.0980877736859815e+00 -8.2065342277128490e+00 0.0000000000000000e+00  -1.1470678504708784e+00 -8.2358660197212039e+00 0.0000000000000000e+00  -2.9470229168499273e-01 -7.9687434622799698e+00 0.0000000000000000e+00  -1.1793479224568360e+00 -8.5712546114745383e+00 0.0000000000000000e+00  -1.9696592620555657e+00 -8.1565324544329254e+00 0.0000000000000000e+00  -1.9857251241934717e+00 -8.6372519100134220e+00 0.0000000000000000e+00  -1.9731292591536160e+00 -8.1765929678799285e+00 0.0000000000000000e+00  -1.8331514423586841e+00 -7.8794468179559178e+00 0.0000000000000000e+00  -1.8182090053449960e+00 -7.8341895995275017e+00 0.0000000000000000e+00  -1.8380316943726474e+00 -8.3856731478299995e+00 0.0000000000000000e+00  -1.5733465231393560e+00 -8.1208590017170490e+00 0.0000000000000000e+00  -1.1350681586588354e+00 -7.9590449801960208e+00 0.0000000000000000e+00  -1.8990612647723040e+00 -7.3430151910424053e+00 0.0000000000000000e+00  -1.7491964490214420e+00 -7.0635959400377368e+00 0.0000000000000000e+00  -9.9056041796963301e-01 -1.1069145320325978e+01 0.0000000000000000e+00  -1.0526058337542390e+00 -1.1110698581702138e+01 0.0000000000000000e+00  7.3332725003764684e-02 -1.0702432838219337e+01 0.0000000000000000e+00  -1.0739306495892376e+00 -1.1331887284967687e+01 0.0000000000000000e+00  -2.1630934058786440e+00 -1.1054977853212154e+01 0.0000000000000000e+00  -2.1265134004935673e+00 -1.1202735839404349e+01 0.0000000000000000e+00  -2.1662003994786487e+00 -1.1081201528701749e+01 0.0000000000000000e+00  -1.9967853294570890e+00 -1.0675743262576734e+01 0.0000000000000000e+00  -1.9792801352676068e+00 -1.0614859919862617e+01 0.0000000000000000e+00  -1.9431479903464774e+00 -1.0851394759660977e+01 0.0000000000000000e+00  -1.6332964763014652e+00 -1.0982997265198502e+01 0.0000000000000000e+00  -1.0586754222318167e+00 -1.0968111778581424e+01 0.0000000000000000e+00  -2.1467400937794849e+00 -1.0460173280535029e+01 0.0000000000000000e+00  -1.9629179369817160e+00 -1.0084215742747034e+01 0.0000000000000000e+00  -8.7133004382423773e-01 -1.2409514909925507e+01 0.0000000000000000e+00  -8.9841682131030476e-01 -1.2447988811768383e+01 0.0000000000000000e+00  -1.9729825784436179e+00 -1.2167526385840047e+01 0.0000000000000000e+00  -1.9575252916523767e+00 -1.2112627291363378e+01 0.0000000000000000e+00  -1.9786926804904970e+00 -1.2154050878677330e+01 0.0000000000000000e+00  -1.9723304929518333e+00 -1.2141653738796020e+01 0.0000000000000000e+00  -1.7319418258119386e+00 -1.2199673799490101e+01 0.0000000000000000e+00  -1.7359868904041624e+00 -1.2198167597609556e+01 0.0000000000000000e+00  -1.8230938468069762e+00 -1.1810899391125711e+01 0.0000000000000000e+00  -1.7631223017297324e+00 -1.1674744493571398e+01 0.0000000000000000e+00  -1.7532398444796373e+00 -1.1639553215491105e+01 0.0000000000000000e+00  -1.8123833371278073e+00 -1.1776819256158349e+01 0.0000000000000000e+00  -8.6595910939932041e-01 -1.2344977431721381e+01 0.0000000000000000e+00  -9.3547207802224663e-01 -1.2415405409887992e+01 0.0000000000000000e+00  -2.0314946137238858e+00 -1.2085202284843419e+01 0.0000000000000000e+00  -2.0792942453366563e+00 -1.2061016794258640e+01 0.0000000000000000e+00  -2.0622839663552339e+00 -1.2045556792200140e+01 0.0000000000000000e+00  -2.0223996878376376e+00 -1.2120584451994430e+01 0.0000000000000000e+00  -1.8572876032124297e+00 -1.1593506369882443e+01 0.0000000000000000e+00  -1.8744890188790080e+00 -1.1762886714799942e+01 0.0000000000000000e+00  -1.8723967326766449e+00 -1.1719645052177711e+01 0.0000000000000000e+00  -1.8561590362862463e+00 -1.1542230845458157e+01 0.0000000000000000e+00  -4.8086815686457324e-01 -1.1629399640622506e+01 0.0000000000000000e+00  -5.0460841163356052e-01 -1.1659752012179283e+01 0.0000000000000000e+00  -1.5109467456959262e+00 -1.1324900408576704e+01 0.0000000000000000e+00  -1.5002303378129638e+00 -1.1215464873745702e+01 0.0000000000000000e+00  -1.4858548750159692e+00 -1.1205047632225517e+01 0.0000000000000000e+00  -1.5156455804334972e+00 -1.1380193096011199e+01 0.0000000000000000e+00  -1.3105156841164072e+00 -1.1554879758891767e+01 0.0000000000000000e+00  -1.3072677406709929e+00 -1.1555856310857994e+01 0.0000000000000000e+00  -1.3134022580347522e+00 -1.0781862866418257e+01 0.0000000000000000e+00  -1.3829681243768230e+00 -1.1033843258281244e+01 0.0000000000000000e+00  -1.3693996918718632e+00 -1.0973052317208593e+01 0.0000000000000000e+00  -1.2994719815493911e+00 -1.0711230359785960e+01 0.0000000000000000e+00  -4.4256921090272899e-01 -1.1750419979160508e+01 0.0000000000000000e+00  -5.6163589476975850e-01 -1.1850238314504983e+01 0.0000000000000000e+00  -1.6173828496678122e+00 -1.1636521936104065e+01 0.0000000000000000e+00  -1.6775965616138253e+00 -1.1734651561212987e+01 0.0000000000000000e+00  -1.6940509945692077e+00 -1.1727503069678100e+01 0.0000000000000000e+00  -1.6060292915617611e+00 -1.1641319745606291e+01 0.0000000000000000e+00  -1.4799078969811650e+00 -1.1258109685653508e+01 0.0000000000000000e+00  -1.4752741890177994e+00 -1.1302549329308750e+01 0.0000000000000000e+00  -1.4772236087310098e+00 -1.1288878636517662e+01 0.0000000000000000e+00  -1.4839672721998591e+00 -1.1250079763628833e+01 0.0000000000000000e+00  5.9499462667642597e-02 -9.0053659988289692e+00 0.0000000000000000e+00  -2.5629074215009436e-02 -9.0666024236210063e+00 0.0000000000000000e+00  -8.1243483731223454e-01 -8.7606779213008199e+00 0.0000000000000000e+00  -7.8667318008453413e-01 -8.5465306890842214e+00 0.0000000000000000e+00  -8.1625543586153604e-01 -8.6069234398848629e+00 0.0000000000000000e+00  -8.2175223196189795e-01 -8.8373214080186564e+00 0.0000000000000000e+00  -6.7824073206718338e-01 -9.1262386992694307e+00 0.0000000000000000e+00  -6.7566295239222940e-01 -9.1269081643654921e+00 0.0000000000000000e+00  -6.6098958086074844e-01 -8.2267259517950819e+00 0.0000000000000000e+00  -7.2648882752112187e-01 -8.5558197780463274e+00 0.0000000000000000e+00  -7.1163222442649665e-01 -8.4780246432471831e+00 0.0000000000000000e+00  -6.4244292376172984e-01 -