<?xml version="1.0"?>
<VTKFile type="UnstructuredGrid"  version="0.1"  >
<UnstructuredGrid>
<Piece  NumberOfPoints="4160" NumberOfCells="16142">
<Points>
<DataArray  type="Float64"  NumberOfComponents="3"  format="ascii">0.175 0 0  0.18445 0 0  0.175 0.00945 0  0.16555 0 0  0.193 0 0  0.175 0.018 0  0.157 0 0  0.175 0 0.006  0.193 0 0.006  0.175 0.018 0.006  0.157 0 0.006  0.175 -0.00945 0  0.175 -0.018 0  0.175 -0.018 0.006  0.1529482566072435 0.0633532422280406 0  0.1704095797717068 0.07058595909974082 0  0.1616789181894752 0.06696960066389071 0  0.1580625597536251 0.07570026224612236 0  0.145049086604272 0.0600812988813191 0  0.1547906164069036 0.08359943224909387 0  0.1783087497746783 0.07385790244646231 0  0.1783087497746783 0.07385790244646231 0.006  0.145049086604272 0.0600812988813191 0.006  0.1547906164069036 0.08359943224909387 0.006  0.1616789181894752 0.06696960066389071 0.006  0.1652952766253253 0.05823893908165905 0  0.1685672199720468 0.05033976907868755 0  0.1685672199720468 0.05033976907868755 0.006  0.1170615276254329 0.1170615276254329 0  0.1304258457898587 0.1304258457898587 0  0.1237436867076458 0.1237436867076458 0  0.117061527625433 0.1304258457898587 0  0.111015764646288 0.111015764646288 0  0.111015764646288 0.1364716087690037 0  0.1364716087690037 0.1364716087690036 0  0.1364716087690037 0.1364716087690036 0.006  0.111015764646288 0.111015764646288 0.006  0.111015764646288 0.1364716087690037 0.006  0.1237436867076458 0.1237436867076458 0.006  0.1304258457898587 0.1170615276254329 0  0.1364716087690037 0.1110157646462879 0  0.1364716087690037 0.1110157646462879 0.006  0.06335324222804062 0.1529482566072435 0  0.07058595909974082 0.1704095797717068 0  0.06696960066389071 0.1616789181894752 0  0.05823893908165905 0.1652952766253253 0  0.06008129888131911 0.145049086604272 0  0.05033976907868755 0.1685672199720468 0  0.07385790244646233 0.1783087497746783 0  0.07385790244646233 0.1783087497746783 0.006  0.06008129888131911 0.145049086604272 0.006  0.05033976907868755 0.1685672199720468 0.006  0.06696960066389071 0.1616789181894752 0.006  0.07570026224612236 0.1580625597536251 0  0.08359943224909387 0.1547906164069036 0  0.08359943224909387 0.1547906164069036 0.006  1.013701387994221e-17 0.16555 0  1.129430510513647e-17 0.18445 0  1.071565949253934e-17 0.175 0  -0.00944999999999999 0.175 0  9.613477373306723e-18 0.157 0  -0.01799999999999999 0.175 0  1.181784161177196e-17 0.193 0  1.181784161177196e-17 0.193 0.006  9.613477373306723e-18 0.157 0.006  -0.01799999999999999 0.175 0.006  1.071565949253934e-17 0.175 0.006  0.00945000000000001 0.175 0  0.01800000000000001 0.175 0  0.01800000000000001 0.175 0.006  -0.06335324222804059 0.1529482566072435 0  -0.0705859590997408 0.1704095797717068 0  -0.0669696006638907 0.1616789181894752 0  -0.07570026224612236 0.1580625597536251 0  -0.06008129888131909 0.145049086604272 0  -0.08359943224909386 0.1547906164069036 0  -0.07385790244646231 0.1783087497746783 0  -0.07385790244646231 0.1783087497746783 0.006  -0.06008129888131909 0.145049086604272 0.006  -0.08359943224909386 0.1547906164069036 0.006  -0.0669696006638907 0.1616789181894752 0.006  -0.05823893908165904 0.1652952766253253 0  -0.05033976907868754 0.1685672199720468 0  -0.05033976907868754 0.1685672199720468 0.006  -0.1170615276254329 0.1170615276254329 0  -0.1304258457898587 0.1304258457898587 0  -0.1237436867076458 0.1237436867076458 0  -0.1304258457898587 0.117061527625433 0  -0.111015764646288 0.111015764646288 0  -0.1364716087690037 0.111015764646288 0  -0.1364716087690036 0.1364716087690037 0  -0.1364716087690036 0.1364716087690037 0.006  -0.111015764646288 0.111015764646288 0.006  -0.1364716087690037 0.111015764646288 0.006  -0.1237436867076458 0.1237436867076458 0.006  -0.1170615276254329 0.1304258457898587 0  -0.1110157646462879 0.1364716087690037 0  -0.1110157646462879 0.1364716087690037 0.006  -0.1529482566072435 0.06335324222804062 0  -0.1704095797717068 0.07058595909974083 0  -0.1616789181894752 0.06696960066389072 0  -0.1652952766253253 0.05823893908165906 0  -0.145049086604272 0.06008129888131911 0  -0.1685672199720468 0.05033976907868756 0  -0.1783087497746783 0.07385790244646234 0  -0.1783087497746783 0.07385790244646234 0.006  -0.145049086604272 0.06008129888131911 0.006  -0.1685672199720468 0.05033976907868756 0.006  -0.1616789181894752 0.06696960066389072 0.006  -0.1580625597536251 0.07570026224612239 0  -0.1547906164069036 0.08359943224909389 0  -0.1547906164069036 0.08359943224909389 0.006  -0.16555 2.027402775988443e-17 0  -0.18445 2.258861021027293e-17 0  -0.175 2.143131898507868e-17 0  -0.175 -0.009449999999999979 0  -0.157 1.922695474661345e-17 0  -0.175 -0.01799999999999998 0  -0.193 2.363568322354391e-17 0  -0.193 2.363568322354391e-17 0.006  -0.157 1.922695474661345e-17 0.006  -0.175 -0.01799999999999998 0.006  -0.175 2.143131898507868e-17 0.006  -0.175 0.009450000000000021 0  -0.175 0.01800000000000002 0  -0.175 0.01800000000000002 0.006  -0.1529482566072435 -0.06335324222804059 0  -0.1704095797717069 -0.07058595909974079 0  -0.1616789181894752 -0.06696960066389068 0  -0.1580625597536251 -0.07570026224612235 0  -0.145049086604272 -0.06008129888131908 0  -0.1547906164069036 -0.08359943224909384 0  -0.1783087497746783 -0.0738579024464623 0  -0.1783087497746783 -0.0738579024464623 0.006  -0.145049086604272 -0.06008129888131908 0.006  -0.1547906164069036 -0.08359943224909384 0.006  -0.1616789181894752 -0.06696960066389068 0.006  -0.1652952766253253 -0.05823893908165902 0  -0.1685672199720468 -0.05033976907868752 0  -0.1685672199720468 -0.05033976907868752 0.006  -0.117061527625433 -0.1170615276254329 0  -0.1304258457898587 -0.1304258457898587 0  -0.1237436867076458 -0.1237436867076458 0  -0.117061527625433 -0.1304258457898587 0  -0.111015764646288 -0.111015764646288 0  -0.111015764646288 -0.1364716087690037 0  -0.1364716087690037 -0.1364716087690036 0  -0.1364716087690037 -0.1364716087690036 0.006  -0.111015764646288 -0.111015764646288 0.006  -0.111015764646288 -0.1364716087690037 0.006  -0.1237436867076458 -0.1237436867076458 0.006  -0.1304258457898587 -0.1170615276254329 0  -0.1364716087690037 -0.1110157646462879 0  -0.1364716087690037 -0.1110157646462879 0.006  -0.0633532422280407 -0.1529482566072435 0  -0.07058595909974091 -0.1704095797717068 0  -0.06696960066389081 -0.1616789181894751 0  -0.05823893908165915 -0.1652952766253252 0  -0.06008129888131918 -0.145049086604272 0  -0.05033976907868765 -0.1685672199720468 0  -0.07385790244646243 -0.1783087497746783 0  -0.07385790244646243 -0.1783087497746783 0.006  -0.06008129888131918 -0.145049086604272 0.006  -0.05033976907868765 -0.1685672199720468 0.006  -0.06696960066389081 -0.1616789181894751 0.006  -0.07570026224612246 -0.158062559753625 0  -0.08359943224909397 -0.1547906164069035 0  -0.08359943224909397 -0.1547906164069035 0.006  -3.041104163982664e-17 -0.16555 0  -3.388291531540939e-17 -0.18445 0  -3.214697847761802e-17 -0.175 0  0.009449999999999967 -0.175 0  -2.884043211992017e-17 -0.157 0  0.01799999999999997 -0.175 0  -3.545352483531587e-17 -0.193 0  -3.545352483531587e-17 -0.193 0.006  -2.884043211992017e-17 -0.157 0.006  0.01799999999999997 -0.175 0.006  -3.214697847761802e-17 -0.175 0.006  -0.009450000000000033 -0.175 0  -0.01800000000000003 -0.175 0  -0.01800000000000003 -0.175 0.006  0.06335324222804065 -0.1529482566072435 0  0.07058595909974086 -0.1704095797717068 0  0.06696960066389075 -0.1616789181894752 0  0.07570026224612242 -0.1580625597536251 0  0.06008129888131913 -0.145049086604272 0  0.08359943224909391 -0.1547906164069035 0  0.07385790244646236 -0.1783087497746783 0  0.07385790244646236 -0.1783087497746783 0.006  0.06008129888131913 -0.145049086604272 0.006  0.08359943224909391 -0.1547906164069035 0.006  0.06696960066389075 -0.1616789181894752 0.006  0.05823893908165909 -0.1652952766253253 0  0.05033976907868759 -0.1685672199720468 0  0.05033976907868759 -0.1685672199720468 0.006  0.1170615276254329 -0.117061527625433 0  0.1304258457898587 -0.1304258457898587 0  0.1237436867076458 -0.1237436867076458 0  0.1304258457898587 -0.117061527625433 0  0.1110157646462879 -0.111015764646288 0  0.1364716087690036 -0.111015764646288 0  0.1364716087690036 -0.1364716087690037 0  0.1364716087690036 -0.1364716087690037 0.006  0.1110157646462879 -0.111015764646288 0.006  0.1364716087690036 -0.111015764646288 0.006  0.1237436867076458 -0.1237436867076458 0.006  0.1170615276254329 -0.1304258457898587 0  0.1110157646462879 -0.1364716087690037 0  0.1110157646462879 -0.1364716087690037 0.006  0.1529482566072435 -0.0633532422280407 0  0.1704095797717068 -0.07058595909974093 0  0.1616789181894751 -0.06696960066389081 0  0.1652952766253252 -0.05823893908165915 0  0.145049086604272 -0.06008129888131919 0  0.1685672199720468 -0.05033976907868765 0  0.1783087497746783 -0.07385790244646244 0  0.1783087497746783 -0.07385790244646244 0.006  0.145049086604272 -0.06008129888131919 0.006  0.1685672199720468 -0.05033976907868765 0.006  0.1616789181894751 -0.06696960066389081 0.006  0.158062559753625 -0.07570026224612246 0  0.1547906164069035 -0.08359943224909397 0  0.1547906164069035 -0.08359943224909397 0.006  0.1816821590571039 0.006682159107321884 0  0.1683178408904039 0.006682159054829612 0  0.1905884572626798 0.009000000009422473 0  0.1839999999697972 0.01558845728555746 0  0.1659999999713115 0.01558845725155659 0  0.1594115427217315 0.008999999982422135 0  0.1659999999999918 0 0.006  0.1839999999999864 0 0.006  0.1905884572626798 0.009000000009422473 0.006  0.1839999999697972 0.01558845728555746 0.006  0.1659999999713115 0.01558845725155659 0.006  0.1594115427217315 0.008999999982422135 0.006  0.1816821590822129 -0.006682159082212883 0  0.1683178409177871 -0.006682159082212875 0  0.1594115427217313 -0.008999999982421729 0  0.1659999999713265 -0.01558845725156525 0  0.1839999999697972 -0.01558845728555747 0  0.1905884572626846 -0.009000000009414219 0  0.1839999999697972 -0.01558845728555747 0.006  0.1905884572626846 -0.00
[...]
<PointData  Vectors="f_1335"> 
<DataArray  type="Float64"  Name="f_1335"  NumberOfComponents="3" format="ascii">4.6025278382564873e-04 -1.3475547931839947e-04 0.0000000000000000e+00  3.7785294549422905e-04 -1.1439053008254965e-04 0.0000000000000000e+00  3.8247557504553746e-04 -1.1437083575621849e-04 0.0000000000000000e+00  3.7692389273598370e-04 -1.0948499848285958e-04 0.0000000000000000e+00  2.7422769387758965e-04 -8.9456284053458481e-05 0.0000000000000000e+00  2.6753860441904492e-04 -8.7300666380182447e-05 0.0000000000000000e+00  2.7277196153419118e-04 -8.8505870951071782e-05 0.0000000000000000e+00  3.1782847798069168e-04 -9.9461823613842602e-05 0.0000000000000000e+00  2.6886260307100375e-04 -8.8121331047591973e-05 0.0000000000000000e+00  2.6588718196633384e-04 -8.6857736073084373e-05 0.0000000000000000e+00  2.6707897369985254e-04 -8.7229682568072485e-05 0.0000000000000000e+00  3.7470671321330546e-04 -1.1298103433171548e-04 0.0000000000000000e+00  2.6076839802006795e-04 -8.6227073293749867e-05 0.0000000000000000e+00  2.5929835278950771e-04 -8.5835274184615042e-05 0.0000000000000000e+00  3.7479367037240331e-04 -1.0518955367096933e-04 0.0000000000000000e+00  3.7470254634391789e-04 -1.0867648651499638e-04 0.0000000000000000e+00  4.5703667584351545e-04 -1.2856326681176967e-04 0.0000000000000000e+00  3.7722890457987131e-04 -1.0999582010603512e-04 0.0000000000000000e+00  2.7089519295461008e-04 -8.4795832003197691e-05 0.0000000000000000e+00  2.5786170295794621e-04 -8.1106975895215867e-05 0.0000000000000000e+00  2.7216899273948289e-04 -8.5545664275125000e-05 0.0000000000000000e+00  2.6685656180951427e-04 -8.4294136825978326e-05 0.0000000000000000e+00  2.6522370558807720e-04 -8.3563237195005105e-05 0.0000000000000000e+00  2.5611531985302933e-04 -8.0651772812528189e-05 0.0000000000000000e+00  3.1567930082379293e-04 -9.5158225795520220e-05 0.0000000000000000e+00  3.7768909877565395e-04 -1.0836237671600225e-04 0.0000000000000000e+00  2.6664068296774893e-04 -8.5019738703677092e-05 0.0000000000000000e+00  2.6453816772837755e-04 -8.4510276794789768e-05 0.0000000000000000e+00  3.1421790429550452e-04 -8.3035337386529596e-05 0.0000000000000000e+00  3.1501016287548215e-04 -8.7143862449786706e-05 0.0000000000000000e+00  3.8374802973093175e-04 -1.0234858246851747e-04 0.0000000000000000e+00  3.1021736572224004e-04 -8.4775697605664262e-05 0.0000000000000000e+00  2.2745956986696783e-04 -6.7801830621785989e-05 0.0000000000000000e+00  2.0880132799067964e-04 -6.2208981552667986e-05 0.0000000000000000e+00  2.2863238355562646e-04 -6.8556510082383679e-05 0.0000000000000000e+00  2.2416960141059168e-04 -6.7559744545497760e-05 0.0000000000000000e+00  2.2271890658925644e-04 -6.6861193200159900e-05 0.0000000000000000e+00  2.0683098762298808e-04 -6.1722380261185702e-05 0.0000000000000000e+00  2.6505277933512068e-04 -7.5984368683063973e-05 0.0000000000000000e+00  3.2294633698794396e-04 -8.8666196353857118e-05 0.0000000000000000e+00  2.3168713883520592e-04 -7.0855856038844884e-05 0.0000000000000000e+00  2.3049708873404537e-04 -7.0590202425050558e-05 0.0000000000000000e+00  2.0663843609767702e-04 -4.9707853340644509e-05 0.0000000000000000e+00  2.0645434598063302e-04 -5.1495568516507018e-05 0.0000000000000000e+00  2.5189276948683594e-04 -6.0657061165424070e-05 0.0000000000000000e+00  1.9631383506776609e-04 -4.8066777340018245e-05 0.0000000000000000e+00  1.4949485891384908e-04 -4.0727562626119106e-05 0.0000000000000000e+00  1.2775619793643680e-04 -3.3937645302525334e-05 0.0000000000000000e+00  1.5017409447398730e-04 -4.1085411879923909e-05 0.0000000000000000e+00  1.4725797204270734e-04 -4.0518162859527514e-05 0.0000000000000000e+00  1.4637408473765380e-04 -4.0173025279417194e-05 0.0000000000000000e+00  1.2658954913572927e-04 -3.3659927798003353e-05 0.0000000000000000e+00  1.7406562937114433e-04 -4.5403529264263166e-05 0.0000000000000000e+00  2.1549394980964373e-04 -5.4619471108702322e-05 0.0000000000000000e+00  1.6195913360931601e-04 -4.6014776252218757e-05 0.0000000000000000e+00  1.6139483954791720e-04 -4.5920425317108153e-05 0.0000000000000000e+00  6.6544221454549094e-05 -8.0072741403119861e-06 0.0000000000000000e+00  6.7306423065963741e-05 -8.8727963219588494e-06 0.0000000000000000e+00  8.1842914823292796e-05 -9.9746020269990124e-06 0.0000000000000000e+00  5.6659269888168150e-05 -5.8206434340685246e-06 0.0000000000000000e+00  4.8557192968685996e-05 -7.3915408312483389e-06 0.0000000000000000e+00  2.7230369960914492e-05 -6.1831504503347720e-07 0.0000000000000000e+00  4.8951373858718485e-05 -7.5165994634338287e-06 0.0000000000000000e+00  4.8006622410694132e-05 -7.4397755897831114e-06 0.0000000000000000e+00  4.7680782474573367e-05 -7.3385813342050631e-06 0.0000000000000000e+00  2.6676625465234723e-05 -5.0758511332790479e-07 0.0000000000000000e+00  5.6667403029249410e-05 -7.9897757783268600e-06 0.0000000000000000e+00  7.7566442175404631e-05 -1.1497368073610153e-05 0.0000000000000000e+00  6.7171476467025432e-05 -1.4063216686979094e-05 0.0000000000000000e+00  6.7052197186691706e-05 -1.4119787196488589e-05 0.0000000000000000e+00  -8.2631626324291573e-05 3.4617109805551286e-05 0.0000000000000000e+00  -8.2455783366085117e-05 3.5367009312420262e-05 0.0000000000000000e+00  -1.0067800775384912e-04 4.2236565895791063e-05 0.0000000000000000e+00  -9.2476855059226332e-05 3.8303835825465300e-05 0.0000000000000000e+00  -5.9526495533988103e-05 2.7015372616880203e-05 0.0000000000000000e+00  -7.7541854691627824e-05 3.2866930562511711e-05 0.0000000000000000e+00  -5.9801136457877691e-05 2.7220240059276355e-05 0.0000000000000000e+00  -5.8631388630173983e-05 2.6787178195613152e-05 0.0000000000000000e+00  -5.8268258923791694e-05 2.6573317739148805e-05 0.0000000000000000e+00  -7.7394956262341188e-05 3.2793729056722900e-05 0.0000000000000000e+00  -6.9425145685602749e-05 3.0635637080797155e-05 0.0000000000000000e+00  -7.3000043558382933e-05 3.2608956492472855e-05 0.0000000000000000e+00  -3.7746616096123880e-05 1.9906660884776580e-05 0.0000000000000000e+00  -3.7102155305342180e-05 1.9672876084297959e-05 0.0000000000000000e+00  -2.1945290080956054e-04 7.1618938669898351e-05 0.0000000000000000e+00  -2.1987087352913913e-04 7.4520212016029581e-05 0.0000000000000000e+00  -2.6797894384718990e-04 8.8125936116111887e-05 0.0000000000000000e+00  -2.2923803232851363e-04 7.6356593590312915e-05 0.0000000000000000e+00  -1.5866995933449011e-04 5.7246922696920646e-05 0.0000000000000000e+00  -1.7038898501464146e-04 6.1243108725806037e-05 0.0000000000000000e+00  -1.5949803746199626e-04 5.7833026877618465e-05 0.0000000000000000e+00  -1.5636940940083128e-04 5.6942235116504572e-05 0.0000000000000000e+00  -1.5534912382419937e-04 5.6385023906355577e-05 0.0000000000000000e+00  -1.6933710690399223e-04 6.0935258293640001e-05 0.0000000000000000e+00  -1.8497132765107237e-04 6.4582957813011954e-05 0.0000000000000000e+00  -2.1078078325285473e-04 7.1663197193581730e-05 0.0000000000000000e+00  -1.3709096164254059e-04 5.0922226156489150e-05 0.0000000000000000e+00  -1.3603377454929314e-04 5.0600077104225243e-05 0.0000000000000000e+00  -3.2156399531951233e-04 9.8195171972456868e-05 0.0000000000000000e+00  -3.2293585549246040e-04 1.0126065203788206e-04 0.0000000000000000e+00  -3.9413839106404322e-04 1.2023645976864414e-04 0.0000000000000000e+00  -3.2977625052960471e-04 1.0191240405191696e-04 0.0000000000000000e+00  -2.3309203150973485e-04 7.8697530255529585e-05 0.0000000000000000e+00  -2.3726208113021457e-04 8.0197788607574538e-05 0.0000000000000000e+00  -2.3477409078827833e-04 7.9453522989845874e-05 0.0000000000000000e+00  -2.3026369561225771e-04 7.8292126101864345e-05 0.0000000000000000e+00  -2.2880628825619056e-04 7.7646881823626593e-05 0.0000000000000000e+00  -2.3553796834741594e-04 7.9731900815924322e-05 0.0000000000000000e+00  -2.7228735126909987e-04 8.8605109909340035e-05 0.0000000000000000e+00  -3.1802111711045532e-04 1.0108053678009338e-04 0.0000000000000000e+00  -2.1557144441200626e-04 7.4184224414138592e-05 0.0000000000000000e+00  -2.1421848867352213e-04 7.3807523174517157e-05 0.0000000000000000e+00  -3.7525692355308267e-04 1.0878966026054077e-04 0.0000000000000000e+00  -3.7858224786527673e-04 1.1433486999106344e-04 0.0000000000000000e+00  -4.6108405776276880e-04 1.3440810993627583e-04 0.0000000000000000e+00  -3.8152650226253498e-04 1.1370144195359854e-04 0.0000000000000000e+00  -2.7240258738966277e-04 8.8097234088438636e-05 0.0000000000000000e+00  -2.6823133853437123e-04 8.7115330828280103e-05 0.0000000000000000e+00  -2.7448910974455247e-04 8.9174801869380463e-05 0.0000000000000000e+00  -2.6915757290275801e-04 8.7847774223268898e-05 0.0000000000000000e+00  -2.6741190673707356e-04 8.6958250663892776e-05 0.0000000000000000e+00  -2.6609607770917607e-04 8.6555244046651066e-05 0.0000000000000000e+00  -3.1841571933686813e-04 9.9211421762200898e-05 0.0000000000000000e+00  -3.7791996799024276e-04 1.1331593702655794e-04 0.0000000000000000e+00  -2.6105484321983639e-04 8.5953173351992193e-05 0.0000000000000000e+00  -2.5882379715040275e-04 8.5376899496638134e-05 0.0000000000000000e+00  -3.7040698747655662e-04 1.0322417410192839e-04 0.0000000000000000e+00  -3.7541269159900489e-04 1.0889356603094681e-04 0.0000000000000000e+00  -4.5692800694653872e-04 1.2778559713833807e-04 0.0000000000000000e+00  -3.7566174096526333e-04 1.0750604188799307e-04 0.0000000000000000e+00  -2.6995778660748491e-04 8.4119176701810179e-05 0.0000000000000000e+00  -2.5798218573458236e-04 8.0619395044769475e-05 0.0000000000000000e+00  -2.7243043918542722e-04 8.5227041589240721e-05 0.0000000000000000e+00  -2.6718840712519620e-04 8.3984736609407558e-05 0.0000000000000000e+00  -2.6535911441343441e-04 8.3110059085894254e-05 0.0000000000000000e+00  -2.5631847960924501e-04 8.0184359048513187e-05 0.0000000000000000e+00  -3.1582035033273393e-04 9.4632743116340420e-05 0.0000000000000000e+00  -3.7885322860404462e-04 1.0898933371253736e-04 0.0000000000000000e+00  -2.6696948709000270e-04 8.4753127720365337e-05 0.0000000000000000e+00  -2.6486431457726600e-04 8.4243464056265460e-05 0.0000000000000000e+00  -3.1464730148549129e-04 8.2934557013897696e-05 0.0000000000000000e+00  -3.1547000658878999e-04 8.7000651064275450e-05 0.0000000000000000e+00  -3.8430185385143403e-04 1.0225998226325263e-04 0.0000000000000000e+00  -3.1166194177694232e-04 8.4857373866952185e-05 0.0000000000000000e+00  -2.2784263692406833e-04 6.7631100676494556e-05 0.0000000000000000e+00  -2.0892455801937849e-04 6.1996281510943958e-05 0.0000000000000000e+00  -2.2900845927936053e-04 6.8380513708482537e-05 0.0000000000000000e+00  -2.2460518051624107e-04 6.7396747434531724e-05 0.0000000000000000e+00  -2.2309803534507571e-04 6.6687544475245360e-05 0.0000000000000000e+00  -2.0741917214240927e-04 6.1613383202914924e-05 0.0000000000000000e+00  -2.6546849054944778e-04 7.5828985363110178e-05 0.0000000000000000e+00  -3.2244288363350706e-04 8.8326303848392228e-05 0.0000000000000000e+00  -2.3236441973603476e-04 7.0722115912204644e-05 0.0000000000000000e+00  -2.3070178420157389e-04 7.0353517714963980e-05 0.0000000000000000e+00  -2.0560242321531068e-04 4.9059035794227925e-05 0.0000000000000000e+00  -2.0751261835330858e-04 5.1898304771096771e-05 0.0000000000000000e+00  -2.5272162317602697e-04 6.0766744748307851e-05 0.0000000000000000e+00  -1.9741961637680379e-04 4.8560885260054406e-05 0.0000000000000000e+00  -1.4954310243523377e-04 4.0525754248244308e-05 0.0000000000000000e+00  -1.2830878661270159e-04 3.3906295118303300e-05 0.0000000000000000e+00  -1.5073482649579978e-04 4.1062485174345870e-05 0.0000000000000000e+00  -1.4781424992745053e-04 4.0481998470321635e-05 0.0000000000000000e+00  -1.4681514994478178e-04 4.0037824332441299e-05 0.0000000000000000e+00  -1.2713844173164302e-04 3.3627402324271224e-05 0.0000000000000000e+00  -1.7467768190178865e-04 4.5356822720246019e-05 0.0000000000000000e+00  -2.1488990167611526e-04 5.3688457844522614e-05 0.0000000000000000e+00  -1.6250096817179956e-04 4.5888696779318371e-05 0.0000000000000000e+00  -1.6173997517552241e-04 4.5753419959938245e-05 0.0000000000000000e+00  -6.7191504871301505e-05 7.9278959315713132e-06 0.0000000000000000e+00  -6.7878720640415075e-05 8.7287384621968843e-06 0.0000000000000000e+00  -8.2510293964724017e-05 9.8605860565061576e-06 0.0000000000000000e+00  -5.7454925036968427e-05 5.7214441783988279e-06 0.0000000000000000e+00  -4.9059793153138768e-05 7.2938677131115947e-06 0.0000000000000000e+00  -2.7743885437954695e-05 5.3087636520264162e-07 0.0000000000000000e+00  -4.9454670081480752e-05 7.4180410906084235e-06 0.0000000000000000e+00  -4.8501676063192335e-05 7.3430113671337720e-06 0.0000000000000000e+00  -4.8174772227172578e-05 7.2400188977037891e-06 0.0000000000000000e+00  -2.7235158488173563e-05 4.2376309642222309e-07 0.0000000000000000e+00  -5.7198815801076815e-05 7.8849722269023100e-06 0.0000000000000000e+00  -7.8184068537219596e-05 1.1391094844270123e-05 0.0000000000000000e+00  -6.7674695913108840e-05 1.3973379345480199e-05 0.0000000000000000e+00  -6.7552891233877842e-05 1.4030083847685284e-05 0.0000000000000000e+00  8.2058442183192046e-05 -3.5473533026708780e-05 0.0000000000000000e+00  8.1206730906084769e-05 -3.4388237063366879e-05 0.0000000000000000e+00  9.9949151379275490e-05 -4.2265959385780484e-05 0.0000000000000000e+00  9.2598706826471536e-05 -3.8220494551510878e-05 0.0000000000000000e+00  5.8908227325671951e-05 -2.7154985255497147e-05 0.0000000000000000e+00  7.6857985004360520e-05 -3.2882674423195474e-05 0.0000000000000000e+00  5.9187011598422880e-05 -2.7164284568994318e-05 0.0000000000000000e+00  5.8052884811029409e-05 -2.6767848647495467e-05 0.0000000000000000e+00  5.7803031016974730e-05 -2.6744267320210167e-05 0.0000000000000000e+00  7.6757888251354140e-05 -3.2823583382287479e-05 0.0000000000000000e+00  6.8850555675078643e-05 -3.0678871846880193e-05 0.0000000000000000e+00  7.2224294893264964e-05 -3.2815224832653949e-05 0.0000000000000000e+00  3.7282086099263820e-05 -2.0021604855457052e-05 0.0000000000000000e+00  3.6543272254303627e-05 -1.9751471263578984e-05 0.0000000000000000e+00  2.1938788238771143e-04 -7.2451722113123327e-05 0.0000000000000000e+00  2.1911515151261718e-04 -7.4511675277900904e-05 0.0000000000000000e+00  2.6745276492626827e-04 -8.8484970949575571e-05 0.0000000000000000e+00  2.2677446479461705e-04 -7.5631304285610741e-05 0.0000000000000000e+00  1.5828171993111312e-04 -5.7540112392678499e-05 0.0000000000000000e+00  1.6991420568624740e-04 -6.1403372809403785e-05 0.0000000000000000e+00  1.5901389920238259e-04 -5.8016432570222136e-05 0.0000000000000000e+00  1.5591750237810496e-04 -5.7136301127588132e-05 0.0000000000000000e+00  1.5495024018430360e-04 -5.6655652133014736e-05 0.0000000000000000e+00  1.6926962737241945e-04 -6.1202032824089395e-05 0.0000000000000000e+00  1.8453577370443309e-04 -6.4883454777441558e-05 0.0000000000000000e+00  2.1262105093667222e-04 -7.3537458436504494e-05 0.0000000000000000e+00  1.3666527290949094e-04 -5.1200880398127852e-05 0.0000000000000000e+00  1.3517268587783163e-04 -5.0748057795402093e-05 0.0000000000000000e+00  3.2263514111391487e-04 -9.8155048482087131e-05 0.0000000000000000e+00  3.2336929124348452e-04 -1.0242634785215786e-04 0.0000000000000000e+00  3.9407513946427094e-04 -1.2086061481149732e-04 0.0000000000000000e+00  3.2798778384852674e-04 -1.0270430002882890e-04 0.0000000000000000e+00  2.3329755252751526e-04 -7.8982662535894945e-05 0.0000000000000000e+00  2.3702346451831387e-04 -8.0539353017464716e-05 0.0000000000000000e+00  2.3450533632263549e-04 -7.9813453524433845e-05 0.0000000000000000e+00  2.2990850104125056e-04 -7.8605899811188203e-05 0.0000000000000000e+00  2.2841690700865812e-04 -7.7823033179246463e-05 0.0000000000000000e+00  2.3590862643623124e-04 -8.0222964830231841e-05 0.0000000000000000e+00  2.7196868948486740e-04 -8.8921517284976909e-05 0.0000000000000000e+00  3.1890378269843069e-04 -1.0062435774791929e-04 0.0000000000000000e+00  2.1504919373848514e-04 -7.4311992189557186e-05 0.0000000000000000e+00  2.1303630114522632e-04 -7.3756236547035313e-05 0.0000000000000000e+00  3.7585699040059052e-04 -1.1356569941348533e-04 0.0000000000000000e+00  3.7241283117788029e-04 -1.0971772736953105e-04 0.0000000000000000e+00  2.7158320409353601e-04 -8.8657920003192147e-05 0.0000000000000000e+00  2.6937051225290552e-04 -8.7901946977341877e-05 0.0000000000000000e+00  2.6913296126220178e-04 -8.7580978148732379e-05 0.0000000000000000e+00  2.6996058817763498e-04 -8.7763555892637633e-05 0.0000000000000000e+00  2.9437606234059200e-04 -9.3325599998766577e-05 0.0000000000000000e+00  2.9464183170876685e-04 -9.4258155219978829e-05 0.0000000000000000e+00  2.6848970114624578e-04 -8.7870808028618419e-05 0.0000000000000000e+00  2.6644109095384701e-04 -8.7174323642394923e-05 0.0000000000000000e+00  2.6537092095350076e-04 -8.6647810643758445e-05 0.0000000000000000e+00  2.6745875453774174e-04 -8.7168089281034269e-05 0.0000000000000000e+00  3.7528583593041901e-04 -1.1368393515936882e-04 0.0000000000000000e+00  3.6983815858868357e-04 -1.0938941928608599e-04 0.0000000000000000e+00  2.6609323828577286e-04 -8.7133528401160454e-05 0.0000000000000000e+00  2.6256292918633105e-04 -8.6507534810093093e-05 0.0000000000000000e+00  2.6302077378449371e-04 -8.6834598430708934e-05 0.0000000000000000e+00  2.6835238381710903e-04 -8.8129325764481142e-05 0.0000000000000000e+00  2.6042978767297872e-04 -8.6186480149006578e-05 0.0000000000000000e+00  2.6514461477965582e-04 -8.7321059999116691e-05 0.0000000000000000e+00  2.6353471462883197e-04 -8.6529398359002724e-05 0.0000000000000000e+00  2.5864586465985560e-04 -8.5552776339931804e-05 0.0000000000000000e+00  3.7094556685872876e-04 -1.0828242593021343e-04 0.0000000000000000e+00  3.6804982868466653e-04 -1.0535535285097631e-04 0.0000000000000000e+00  2.6386959164424316e-04 -8.2725436558321927e-05 0.0000000000000000e+00  2.6022328023402307e-04 -8.1653706756778805e-05 0.0000000000000000e+00  2.6109872045621593e-04 -8.2146536643581714e-05 0.0000000000000000e+00  2.6607382354558581e-04 -8.3699194364541402e-05 0.0000000000000000e+00  2.9254105695606042e-04 -9.0103386861306378e-05 0.0000000000000000e+00  2.9240707952052803e-04 -8.9421054830472827e-05 0.0000000000000000e+00  2.5807999398384730e-04 -8.1387350533078352e-05 0.0000000000000000e+00  2.6288728803888507e-04 -8.2909597690276695e-05 0.0000000000000000e+00  2.6132217965701244e-04 -8.2137367078718174e-05 0.0000000000000000e+00  2.5620060701835945e-04 -8.0649290995396216e-05 0.0000000000000000e+00  3.7822869642460379e-04 -1.0918656299420968e-04 0.0000000000000000e+00  3.6983181281457508e-04 -1.0501124525082924e-04 0.0000000000000000e+00  2.6845100396727400e-04 -8.4817145322464319e-05 0.0000000000000000e+00  2.6783235690000290e-04 -8.5092590056986417e-05 0.0000000000000000e+00  2.6595923338627479e-04 -8.4810925455496440e-05 0.0000000000000000e+00  2.6973486795376457e-04 -8.5386544830974348e-05 0.0000000000000000e+00  2.6467643692440398e-04 -8.4474903365321937e-05 0.0000000000000000e+00  2.6673372393207933e-04 -8.4681246288357396e-05 0.0000000000000000e+00  2.6596179473696899e-04 -8.4248972314115232e-05 0.0000000000000000e+00  2.6411659567019541e-04 -8.4263438048646214e-05 0.0000000000000000e+00  3.1328442328038128e-04 -8.6246547586519735e-05 0.0000000000000000e+00  3.0519073524285385e-04 -8.1915951740106597e-05 0.0000000000000000e+00  2.1721520855275825e-04 -6.4656923104161211e-05 0.0000000000000000e+00  2.1124458014900333e-04 -6.2808532237797535e-05 0.0000000000000000e+00  2.1094004097096329e-04 -6.3101931765995961e-05 0.0000000000000000e+00  2.1974675227917224e-04 -6.5768270644745070e-05 0.0000000000000000e+00  2.4576472224942383e-04 -7.2151556861825377e-05 0.0000000000000000e+00  2.4545638042179293e-04 -7.1355731581772318e-05 0.0000000000000000e+00  2.0975489499799345e-04 -6.2794617911485266e-05 0.0000000000000000e+00  2.1700103326179244e-04 -6.5114952513893132e-05 0.0000000000000000e+00  2.1502049700394807e-04 -6.4181122988810882e-05 0.0000000000000000e+00  2.0761121547677871e-04 -6.1943795645152437e-05 0.0000000000000000e+00  3.178775