<?xml version="1.0"?>
<VTKFile type="UnstructuredGrid"  version="0.1"  >
<UnstructuredGrid>
<Piece  NumberOfPoints="4160" NumberOfCells="16142">
<Points>
<DataArray  type="Float64"  NumberOfComponents="3"  format="ascii">0.175 0 0  0.18445 0 0  0.175 0.00945 0  0.16555 0 0  0.193 0 0  0.175 0.018 0  0.157 0 0  0.175 0 0.006  0.193 0 0.006  0.175 0.018 0.006  0.157 0 0.006  0.175 -0.00945 0  0.175 -0.018 0  0.175 -0.018 0.006  0.1529482566072435 0.0633532422280406 0  0.1704095797717068 0.07058595909974082 0  0.1616789181894752 0.06696960066389071 0  0.1580625597536251 0.07570026224612236 0  0.145049086604272 0.0600812988813191 0  0.1547906164069036 0.08359943224909387 0  0.1783087497746783 0.07385790244646231 0  0.1783087497746783 0.07385790244646231 0.006  0.145049086604272 0.0600812988813191 0.006  0.1547906164069036 0.08359943224909387 0.006  0.1616789181894752 0.06696960066389071 0.006  0.1652952766253253 0.05823893908165905 0  0.1685672199720468 0.05033976907868755 0  0.1685672199720468 0.05033976907868755 0.006  0.1170615276254329 0.1170615276254329 0  0.1304258457898587 0.1304258457898587 0  0.1237436867076458 0.1237436867076458 0  0.117061527625433 0.1304258457898587 0  0.111015764646288 0.111015764646288 0  0.111015764646288 0.1364716087690037 0  0.1364716087690037 0.1364716087690036 0  0.1364716087690037 0.1364716087690036 0.006  0.111015764646288 0.111015764646288 0.006  0.111015764646288 0.1364716087690037 0.006  0.1237436867076458 0.1237436867076458 0.006  0.1304258457898587 0.1170615276254329 0  0.1364716087690037 0.1110157646462879 0  0.1364716087690037 0.1110157646462879 0.006  0.06335324222804062 0.1529482566072435 0  0.07058595909974082 0.1704095797717068 0  0.06696960066389071 0.1616789181894752 0  0.05823893908165905 0.1652952766253253 0  0.06008129888131911 0.145049086604272 0  0.05033976907868755 0.1685672199720468 0  0.07385790244646233 0.1783087497746783 0  0.07385790244646233 0.1783087497746783 0.006  0.06008129888131911 0.145049086604272 0.006  0.05033976907868755 0.1685672199720468 0.006  0.06696960066389071 0.1616789181894752 0.006  0.07570026224612236 0.1580625597536251 0  0.08359943224909387 0.1547906164069036 0  0.08359943224909387 0.1547906164069036 0.006  1.013701387994221e-17 0.16555 0  1.129430510513647e-17 0.18445 0  1.071565949253934e-17 0.175 0  -0.00944999999999999 0.175 0  9.613477373306723e-18 0.157 0  -0.01799999999999999 0.175 0  1.181784161177196e-17 0.193 0  1.181784161177196e-17 0.193 0.006  9.613477373306723e-18 0.157 0.006  -0.01799999999999999 0.175 0.006  1.071565949253934e-17 0.175 0.006  0.00945000000000001 0.175 0  0.01800000000000001 0.175 0  0.01800000000000001 0.175 0.006  -0.06335324222804059 0.1529482566072435 0  -0.0705859590997408 0.1704095797717068 0  -0.0669696006638907 0.1616789181894752 0  -0.07570026224612236 0.1580625597536251 0  -0.06008129888131909 0.145049086604272 0  -0.08359943224909386 0.1547906164069036 0  -0.07385790244646231 0.1783087497746783 0  -0.07385790244646231 0.1783087497746783 0.006  -0.06008129888131909 0.145049086604272 0.006  -0.08359943224909386 0.1547906164069036 0.006  -0.0669696006638907 0.1616789181894752 0.006  -0.05823893908165904 0.1652952766253253 0  -0.05033976907868754 0.1685672199720468 0  -0.05033976907868754 0.1685672199720468 0.006  -0.1170615276254329 0.1170615276254329 0  -0.1304258457898587 0.1304258457898587 0  -0.1237436867076458 0.1237436867076458 0  -0.1304258457898587 0.117061527625433 0  -0.111015764646288 0.111015764646288 0  -0.1364716087690037 0.111015764646288 0  -0.1364716087690036 0.1364716087690037 0  -0.1364716087690036 0.1364716087690037 0.006  -0.111015764646288 0.111015764646288 0.006  -0.1364716087690037 0.111015764646288 0.006  -0.1237436867076458 0.1237436867076458 0.006  -0.1170615276254329 0.1304258457898587 0  -0.1110157646462879 0.1364716087690037 0  -0.1110157646462879 0.1364716087690037 0.006  -0.1529482566072435 0.06335324222804062 0  -0.1704095797717068 0.07058595909974083 0  -0.1616789181894752 0.06696960066389072 0  -0.1652952766253253 0.05823893908165906 0  -0.145049086604272 0.06008129888131911 0  -0.1685672199720468 0.05033976907868756 0  -0.1783087497746783 0.07385790244646234 0  -0.1783087497746783 0.07385790244646234 0.006  -0.145049086604272 0.06008129888131911 0.006  -0.1685672199720468 0.05033976907868756 0.006  -0.1616789181894752 0.06696960066389072 0.006  -0.1580625597536251 0.07570026224612239 0  -0.1547906164069036 0.08359943224909389 0  -0.1547906164069036 0.08359943224909389 0.006  -0.16555 2.027402775988443e-17 0  -0.18445 2.258861021027293e-17 0  -0.175 2.143131898507868e-17 0  -0.175 -0.009449999999999979 0  -0.157 1.922695474661345e-17 0  -0.175 -0.01799999999999998 0  -0.193 2.363568322354391e-17 0  -0.193 2.363568322354391e-17 0.006  -0.157 1.922695474661345e-17 0.006  -0.175 -0.01799999999999998 0.006  -0.175 2.143131898507868e-17 0.006  -0.175 0.009450000000000021 0  -0.175 0.01800000000000002 0  -0.175 0.01800000000000002 0.006  -0.1529482566072435 -0.06335324222804059 0  -0.1704095797717069 -0.07058595909974079 0  -0.1616789181894752 -0.06696960066389068 0  -0.1580625597536251 -0.07570026224612235 0  -0.145049086604272 -0.06008129888131908 0  -0.1547906164069036 -0.08359943224909384 0  -0.1783087497746783 -0.0738579024464623 0  -0.1783087497746783 -0.0738579024464623 0.006  -0.145049086604272 -0.06008129888131908 0.006  -0.1547906164069036 -0.08359943224909384 0.006  -0.1616789181894752 -0.06696960066389068 0.006  -0.1652952766253253 -0.05823893908165902 0  -0.1685672199720468 -0.05033976907868752 0  -0.1685672199720468 -0.05033976907868752 0.006  -0.117061527625433 -0.1170615276254329 0  -0.1304258457898587 -0.1304258457898587 0  -0.1237436867076458 -0.1237436867076458 0  -0.117061527625433 -0.1304258457898587 0  -0.111015764646288 -0.111015764646288 0  -0.111015764646288 -0.1364716087690037 0  -0.1364716087690037 -0.1364716087690036 0  -0.1364716087690037 -0.1364716087690036 0.006  -0.111015764646288 -0.111015764646288 0.006  -0.111015764646288 -0.1364716087690037 0.006  -0.1237436867076458 -0.1237436867076458 0.006  -0.1304258457898587 -0.1170615276254329 0  -0.1364716087690037 -0.1110157646462879 0  -0.1364716087690037 -0.1110157646462879 0.006  -0.0633532422280407 -0.1529482566072435 0  -0.07058595909974091 -0.1704095797717068 0  -0.06696960066389081 -0.1616789181894751 0  -0.05823893908165915 -0.1652952766253252 0  -0.06008129888131918 -0.145049086604272 0  -0.05033976907868765 -0.1685672199720468 0  -0.07385790244646243 -0.1783087497746783 0  -0.07385790244646243 -0.1783087497746783 0.006  -0.06008129888131918 -0.145049086604272 0.006  -0.05033976907868765 -0.1685672199720468 0.006  -0.06696960066389081 -0.1616789181894751 0.006  -0.07570026224612246 -0.158062559753625 0  -0.08359943224909397 -0.1547906164069035 0  -0.08359943224909397 -0.1547906164069035 0.006  -3.041104163982664e-17 -0.16555 0  -3.388291531540939e-17 -0.18445 0  -3.214697847761802e-17 -0.175 0  0.009449999999999967 -0.175 0  -2.884043211992017e-17 -0.157 0  0.01799999999999997 -0.175 0  -3.545352483531587e-17 -0.193 0  -3.545352483531587e-17 -0.193 0.006  -2.884043211992017e-17 -0.157 0.006  0.01799999999999997 -0.175 0.006  -3.214697847761802e-17 -0.175 0.006  -0.009450000000000033 -0.175 0  -0.01800000000000003 -0.175 0  -0.01800000000000003 -0.175 0.006  0.06335324222804065 -0.1529482566072435 0  0.07058595909974086 -0.1704095797717068 0  0.06696960066389075 -0.1616789181894752 0  0.07570026224612242 -0.1580625597536251 0  0.06008129888131913 -0.145049086604272 0  0.08359943224909391 -0.1547906164069035 0  0.07385790244646236 -0.1783087497746783 0  0.07385790244646236 -0.1783087497746783 0.006  0.06008129888131913 -0.145049086604272 0.006  0.08359943224909391 -0.1547906164069035 0.006  0.06696960066389075 -0.1616789181894752 0.006  0.05823893908165909 -0.1652952766253253 0  0.05033976907868759 -0.1685672199720468 0  0.05033976907868759 -0.1685672199720468 0.006  0.1170615276254329 -0.117061527625433 0  0.1304258457898587 -0.1304258457898587 0  0.1237436867076458 -0.1237436867076458 0  0.1304258457898587 -0.117061527625433 0  0.1110157646462879 -0.111015764646288 0  0.1364716087690036 -0.111015764646288 0  0.1364716087690036 -0.1364716087690037 0  0.1364716087690036 -0.1364716087690037 0.006  0.1110157646462879 -0.111015764646288 0.006  0.1364716087690036 -0.111015764646288 0.006  0.1237436867076458 -0.1237436867076458 0.006  0.1170615276254329 -0.1304258457898587 0  0.1110157646462879 -0.1364716087690037 0  0.1110157646462879 -0.1364716087690037 0.006  0.1529482566072435 -0.0633532422280407 0  0.1704095797717068 -0.07058595909974093 0  0.1616789181894751 -0.06696960066389081 0  0.1652952766253252 -0.05823893908165915 0  0.145049086604272 -0.06008129888131919 0  0.1685672199720468 -0.05033976907868765 0  0.1783087497746783 -0.07385790244646244 0  0.1783087497746783 -0.07385790244646244 0.006  0.145049086604272 -0.06008129888131919 0.006  0.1685672199720468 -0.05033976907868765 0.006  0.1616789181894751 -0.06696960066389081 0.006  0.158062559753625 -0.07570026224612246 0  0.1547906164069035 -0.08359943224909397 0  0.1547906164069035 -0.08359943224909397 0.006  0.1816821590571039 0.006682159107321884 0  0.1683178408904039 0.006682159054829612 0  0.1905884572626798 0.009000000009422473 0  0.1839999999697972 0.01558845728555746 0  0.1659999999713115 0.01558845725155659 0  0.1594115427217315 0.008999999982422135 0  0.1659999999999918 0 0.006  0.1839999999999864 0 0.006  0.1905884572626798 0.009000000009422473 0.006  0.1839999999697972 0.01558845728555746 0.006  0.1659999999713115 0.01558845725155659 0.006  0.1594115427217315 0.008999999982422135 0.006  0.1816821590822129 -0.006682159082212883 0  0.1683178409177871 -0.006682159082212875 0  0.1594115427217313 -0.008999999982421729 0  0.1659999999713265 -0.01558845725156525 0  0.1839999999697972 -0.01558845728555747 0  0.1905884572626846 -0.009000000009414219 0  0.1839999999697972 -0.01558845728555747 0.006  0.1905884572626846 -0.00
[...]
<PointData  Vectors="f_1327"> 
<DataArray  type="Float64"  Name="f_1327"  NumberOfComponents="3" format="ascii">-1.3618943963307922e-05 3.9215933712045245e-05 0.0000000000000000e+00  -1.0935435621656700e-05 3.2371384470189794e-05 0.0000000000000000e+00  -7.8018331102364141e-07 2.9795975050093389e-05 0.0000000000000000e+00  -1.1229097963056175e-05 3.2058167531300793e-05 0.0000000000000000e+00  -7.5133594196047885e-06 2.3796734245665191e-05 0.0000000000000000e+00  1.3128319740615139e-05 1.6267910414653109e-05 0.0000000000000000e+00  -7.5027059721056049e-06 2.3644003131543652e-05 0.0000000000000000e+00  -8.9875810389015549e-06 2.7380258132082003e-05 0.0000000000000000e+00  -7.3384617740918867e-06 2.3350354298524467e-05 0.0000000000000000e+00  1.3460065113009150e-05 1.6034387216068484e-05 0.0000000000000000e+00  -7.3080360513827451e-06 2.3177656647994140e-05 0.0000000000000000e+00  -2.1320475401040236e-05 3.5022480398204253e-05 0.0000000000000000e+00  -2.7522734775091884e-05 2.9625818689402524e-05 0.0000000000000000e+00  -2.7731116756164852e-05 2.9586550672102424e-05 0.0000000000000000e+00  1.3691865454970139e-04 -1.2064507670978659e-05 0.0000000000000000e+00  1.3712207078872817e-04 -1.3282968288002898e-05 0.0000000000000000e+00  1.6700742321269459e-04 -1.4820923138742691e-05 0.0000000000000000e+00  1.4854507986136165e-04 -1.6619737717989728e-05 0.0000000000000000e+00  9.9512237451857173e-05 -1.1756332019656249e-05 0.0000000000000000e+00  1.1535421536357927e-04 -1.8574144076289414e-05 0.0000000000000000e+00  1.0001029098035282e-04 -1.1935648222024343e-05 0.0000000000000000e+00  9.8082956966553500e-05 -1.1847123150617230e-05 0.0000000000000000e+00  9.7462634706380725e-05 -1.1698127965901966e-05 0.0000000000000000e+00  1.1500031775556451e-04 -1.8628656366122961e-05 0.0000000000000000e+00  1.1574576502772548e-04 -1.2437535667358248e-05 0.0000000000000000e+00  1.2767905853764604e-04 -9.9292170696011441e-06 0.0000000000000000e+00  7.7409731756857288e-05 -4.8533897353937608e-06 0.0000000000000000e+00  7.6371345951233824e-05 -4.7146282760481871e-06 0.0000000000000000e+00  2.6366868253709542e-04 -5.3770772148976399e-05 0.0000000000000000e+00  2.6450587458210341e-04 -5.7122632061060960e-05 0.0000000000000000e+00  3.2204929261258974e-04 -6.6462679600458782e-05 0.0000000000000000e+00  2.7288580305150512e-04 -5.9206845953655503e-05 0.0000000000000000e+00  1.9122331934578153e-04 -4.5249557411522491e-05 0.0000000000000000e+00  2.0008692435796713e-04 -5.0510531484984593e-05 0.0000000000000000e+00  1.9221653445901092e-04 -4.5814296944468437e-05 0.0000000000000000e+00  1.8848208186948202e-04 -4.5200803004807770e-05 0.0000000000000000e+00  1.8725960511553185e-04 -4.4694644704329571e-05 0.0000000000000000e+00  1.9876233323161958e-04 -5.0323671814861458e-05 0.0000000000000000e+00  2.2267584849997466e-04 -5.0243378465733105e-05 0.0000000000000000e+00  2.5868515838860646e-04 -5.4200592395315131e-05 0.0000000000000000e+00  1.7035989854312868e-04 -3.8580941199535708e-05 0.0000000000000000e+00  1.6903055073776325e-04 -3.8296239587695251e-05 0.0000000000000000e+00  3.5101839514382302e-04 -8.8343715816691001e-05 0.0000000000000000e+00  3.5065627406186904e-04 -9.1374151888046136e-05 0.0000000000000000e+00  4.2785383018006750e-04 -1.0782083749765079e-04 0.0000000000000000e+00  3.5248644883110444e-04 -9.1729901772456704e-05 0.0000000000000000e+00  2.5388698624958004e-04 -7.1982068063038580e-05 0.0000000000000000e+00  2.5427274129045263e-04 -7.4706585869595946e-05 0.0000000000000000e+00  2.5501828193066380e-04 -7.2597409279512838e-05 0.0000000000000000e+00  2.5006655002356420e-04 -7.1578450035355971e-05 0.0000000000000000e+00  2.4858333155052361e-04 -7.0979567412134164e-05 0.0000000000000000e+00  2.5274004353206787e-04 -7.4388432173104236e-05 0.0000000000000000e+00  2.9561741770395440e-04 -8.0395000645240065e-05 0.0000000000000000e+00  3.4696484544640213e-04 -9.0493298043317473e-05 0.0000000000000000e+00  2.3781882057753668e-04 -6.6553230810521193e-05 0.0000000000000000e+00  2.3639711167067754e-04 -6.6203725192651999e-05 0.0000000000000000e+00  3.8151517040281883e-04 -1.0760398887687041e-04 0.0000000000000000e+00  3.8497694924103753e-04 -1.1317805021074293e-04 0.0000000000000000e+00  4.6872928259269429e-04 -1.3286981976116772e-04 0.0000000000000000e+00  3.8269435485077701e-04 -1.1237915798803893e-04 0.0000000000000000e+00  2.7701225984247749e-04 -8.7433033022128490e-05 0.0000000000000000e+00  2.6982576743012386e-04 -8.7704315651613448e-05 0.0000000000000000e+00  2.7918021406520829e-04 -8.8511484359114794e-05 0.0000000000000000e+00  2.7375288551362271e-04 -8.7207317576916648e-05 0.0000000000000000e+00  2.7193873315279032e-04 -8.6317017079946826e-05 0.0000000000000000e+00  2.6803504357220977e-04 -8.7265374279593143e-05 0.0000000000000000e+00  3.2375913553641571e-04 -9.8324965310090030e-05 0.0000000000000000e+00  3.8572268822002482e-04 -1.1145010773525515e-04 0.0000000000000000e+00  2.6859477118414018e-04 -8.4150031576503401e-05 0.0000000000000000e+00  2.6636839720990349e-04 -8.3567750405841084e-05 0.0000000000000000e+00  3.5944042843745385e-04 -1.1316828211094082e-04 0.0000000000000000e+00  3.5900309115651733e-04 -1.1637919209345039e-04 0.0000000000000000e+00  4.3813917092578637e-04 -1.3813399758631973e-04 0.0000000000000000e+00  3.5510528781423272e-04 -1.1711441388553884e-04 0.0000000000000000e+00  2.5953781272939117e-04 -9.0237774595536350e-05 0.0000000000000000e+00  2.4431608755719084e-04 -8.7566358248023906e-05 0.0000000000000000e+00  2.6075664173041724e-04 -9.0987696464679821e-05 0.0000000000000000e+00  2.5568915132805948e-04 -8.9626747188534947e-05 0.0000000000000000e+00  2.5408736190612406e-04 -8.8871549271102759e-05 0.0000000000000000e+00  2.4254983438371208e-04 -8.7073750135740617e-05 0.0000000000000000e+00  3.0250132280723282e-04 -1.0159112104954669e-04 0.0000000000000000e+00  3.6507755491616792e-04 -1.1599258976945240e-04 0.0000000000000000e+00  2.5826622840643406e-04 -8.9061995237026221e-05 0.0000000000000000e+00  2.5674387829954321e-04 -8.8605734682709346e-05 0.0000000000000000e+00  2.7908334419460469e-04 -9.9237103310581253e-05 0.0000000000000000e+00  2.7952902772799019e-04 -1.0297693564524931e-04 0.0000000000000000e+00  3.4082661588177648e-04 -1.2201634948796436e-04 0.0000000000000000e+00  2.7367623698228627e-04 -1.0129518937377577e-04 0.0000000000000000e+00  2.0153917785203408e-04 -7.8798980468923648e-05 0.0000000000000000e+00  1.8119851367334649e-04 -7.3653263850262190e-05 0.0000000000000000e+00  2.0259000599556469e-04 -7.9579815897609557e-05 0.0000000000000000e+00  1.9860279555489101e-04 -7.8333565168859287e-05 0.0000000000000000e+00  1.9730549769158984e-04 -7.7583879903717995e-05 0.0000000000000000e+00  1.7938753899177321e-04 -7.3077395965095299e-05 0.0000000000000000e+00  2.3506620585775031e-04 -8.9080286638022692e-05 0.0000000000000000e+00  2.8588105723362104e-04 -1.0342123379043464e-04 0.0000000000000000e+00  2.0927160694641722e-04 -8.0626947344413064e-05 0.0000000000000000e+00  2.0836230402350756e-04 -8.0307462057197058e-05 0.0000000000000000e+00  1.5606724058517772e-04 -7.1140570271659322e-05 0.0000000000000000e+00  1.5661134853198734e-04 -7.2815022585149354e-05 0.0000000000000000e+00  1.9138914761934107e-04 -8.7145219026261490e-05 0.0000000000000000e+00  1.4791867281672806e-04 -7.0374755134933452e-05 0.0000000000000000e+00  1.1262742977740064e-04 -5.5429135921293041e-05 0.0000000000000000e+00  9.0704212692235830e-05 -4.8679065081722373e-05 0.0000000000000000e+00  1.1343671983109386e-04 -5.5925708442439570e-05 0.0000000000000000e+00  1.1122932358476224e-04 -5.5037869591862516e-05 0.0000000000000000e+00  1.1053073166662834e-04 -5.4613970403361603e-05 0.0000000000000000e+00  8.9542165876336827e-05 -4.8221901341553570e-05 0.0000000000000000e+00  1.3181961949048317e-04 -6.3049285959329769e-05 0.0000000000000000e+00  1.6631691020449425e-04 -7.5666011002703635e-05 0.0000000000000000e+00  1.2795473186585454e-04 -5.9757679926939157e-05 0.0000000000000000e+00  1.2759277832535718e-04 -5.9571607513741193e-05 0.0000000000000000e+00  1.0701833153648793e-05 -3.2081869061418044e-05 0.0000000000000000e+00  1.0427438145680350e-05 -3.2565210333655926e-05 0.0000000000000000e+00  1.3066931379713628e-05 -3.9410592738015277e-05 0.0000000000000000e+00  2.5824223789920692e-07 -2.9849797552913318e-05 0.0000000000000000e+00  7.0635845383181770e-06 -2.3738396728401472e-05 0.0000000000000000e+00  -1.3549025312316652e-05 -1.6451721461217742e-05 0.0000000000000000e+00  7.0841262400196748e-06 -2.3936986202674333e-05 0.0000000000000000e+00  6.9183957136839356e-06 -2.3494025274692467e-05 0.0000000000000000e+00  6.8964629748431812e-06 -2.3327099242586929e-05 0.0000000000000000e+00  -1.3887818431609686e-05 -1.6177630358161442e-05 0.0000000000000000e+00  8.5404205613074805e-06 -2.7551074758629047e-05 0.0000000000000000e+00  2.0832908111946616e-05 -3.5364258487394780e-05 0.0000000000000000e+00  2.7138650496646294e-05 -2.9771026285500737e-05 0.0000000000000000e+00  2.7342922834502876e-05 -2.9679089176334948e-05 0.0000000000000000e+00  -1.3558757838372958e-04 1.1502611706660463e-05 0.0000000000000000e+00  -1.3771286572387034e-04 1.3148311480782421e-05 0.0000000000000000e+00  -1.6728765614395960e-04 1.4351072198994598e-05 0.0000000000000000e+00  -1.4815861485353442e-04 1.5686491515592467e-05 0.0000000000000000e+00  -9.9420993663150155e-05 1.1473620840026781e-05 0.0000000000000000e+00  -1.1561113000396049e-04 1.8275981757031794e-05 0.0000000000000000e+00  -1.0036399127401989e-04 1.1699402559195154e-05 0.0000000000000000e+00  -9.8458473620386235e-05 1.1611932351147057e-05 0.0000000000000000e+00  -9.7756330058921089e-05 1.1425517174920910e-05 0.0000000000000000e+00  -1.1528466490576989e-04 1.8331892471683366e-05 0.0000000000000000e+00  -1.1606361022593749e-04 1.2113864486549709e-05 0.0000000000000000e+00  -1.2846145647252475e-04 9.9111976307841274e-06 0.0000000000000000e+00  -7.7799931504005744e-05 4.6480348586736362e-06 0.0000000000000000e+00  -7.6758998664271111e-05 4.5103669037347290e-06 0.0000000000000000e+00  -2.6408766568852631e-04 5.3514748792536957e-05 0.0000000000000000e+00  -2.6497551895546869e-04 5.6842100109385593e-05 0.0000000000000000e+00  -3.2260842238529704e-04 6.6158376434645674e-05 0.0000000000000000e+00  -2.7416922257700072e-04 5.9047046062240115e-05 0.0000000000000000e+00  -1.9159777822641238e-04 4.5025727297170666e-05 0.0000000000000000e+00  -2.0017408221994273e-04 5.0238277864916300e-05 0.0000000000000000e+00  -1.9260942496176521e-04 4.5593244430560890e-05 0.0000000000000000e+00  -1.8892009940732859e-04 4.4990229805247573e-05 0.0000000000000000e+00  -1.8763051181786689e-04 4.4473152809598775e-05 0.0000000000000000e+00  -1.9924439096168813e-04 5.0114755847089245e-05 0.0000000000000000e+00  -2.2310742119420406e-04 5.0004163594417328e-05 0.0000000000000000e+00  -2.5835680387391210e-04 5.3801249819378673e-05 0.0000000000000000e+00  -1.7094669163940064e-04 3.8385443532945905e-05 0.0000000000000000e+00  -1.6922724232482667e-04 3.8037934011129237e-05 0.0000000000000000e+00  -3.4872151236151945e-04 8.7093213236640721e-05 0.0000000000000000e+00  -3.5198128345098693e-04 9.2000163069294653e-05 0.0000000000000000e+00  -4.2873359696948355e-04 1.0789637251990503e-04 0.0000000000000000e+00  -3.5387597055037468e-04 9.2509950555796637e-05 0.0000000000000000e+00  -2.5357744328157188e-04 7.1623268625202718e-05 0.0000000000000000e+00  -2.5480772319175574e-04 7.4645716013525273e-05 0.0000000000000000e+00  -2.5557375007408573e-04 7.2549670230244635e-05 0.0000000000000000e+00  -2.5062099711754799e-04 7.1512016854045451e-05 0.0000000000000000e+00  -2.4894958313631543e-04 7.0746507208127986e-05 0.0000000000000000e+00  -2.5327052573947072e-04 7.4326532285519568e-05 0.0000000000000000e+00  -2.9624533852720675e-04 8.0289113586286728e-05 0.0000000000000000e+00  -3.4550691189386053e-04 8.8818051778727819e-05 0.0000000000000000e+00  -2.3827958950325073e-04 6.6312818754552937e-05 0.0000000000000000e+00  -2.3653858026940623e-04 6.5892890333710605e-05 0.0000000000000000e+00  -3.8190365164295336e-04 1.0749953035099388e-04 0.0000000000000000e+00  -3.8539096873383495e-04 1.1296564507838639e-04 0.0000000000000000e+00  -4.6930281497957010e-04 1.3300950612120578e-04 0.0000000000000000e+00  -3.8439130280099428e-04 1.1261203890930691e-04 0.0000000000000000e+00  -2.7741377377598340e-04 8.7295566983912928e-05 0.0000000000000000e+00  -2.7006647385346473e-04 8.7494087866815806e-05 0.0000000000000000e+00  -2.7961253106738976e-04 8.8380205630150092e-05 0.0000000000000000e+00  -2.7414257807598059e-04 8.7064622380641780e-05 0.0000000000000000e+00  -2.7233752224677023e-04 8.6176466520735586e-05 0.0000000000000000e+00  -2.6858297977202221e-04 8.7127534746630949e-05 0.0000000000000000e+00  -3.2416291523596120e-04 9.8239325490201719e-05 0.0000000000000000e+00  -3.8632317412779605e-04 1.1147574408161676e-04 0.0000000000000000e+00  -2.6901448597185259e-04 8.4031006576275937e-05 0.0000000000000000e+00  -2.6678610241133406e-04 8.3446808477833794e-05 0.0000000000000000e+00  -3.6031820114342222e-04 1.1575176400844345e-04 0.0000000000000000e+00  -3.5606724931088244e-04 1.1143764917549606e-04 0.0000000000000000e+00  -4.3812414217656140e-04 1.3699951631614208e-04 0.0000000000000000e+00  -3.5858530034145420e-04 1.1555462807752178e-04 0.0000000000000000e+00  -2.5935848373930470e-04 9.0021491432813820e-05 0.0000000000000000e+00  -2.4397318469429125e-04 8.6855664143913578e-05 0.0000000000000000e+00  -2.6051615406214393e-04 8.9947804958218623e-05 0.0000000000000000e+00  -2.5558925715945657e-04 8.8739642314066279e-05 0.0000000000000000e+00  -2.5453132095375224e-04 8.8737466071835342e-05 0.0000000000000000e+00  -2.4224893695934277e-04 8.6375992223979248e-05 0.0000000000000000e+00  -3.0258547299928966e-04 1.0082305909531114e-04 0.0000000000000000e+00  -3.6461741542715971e-04 1.1587804993760378e-04 0.0000000000000000e+00  -2.5888118671586491e-04 8.8778743930405203e-05 0.0000000000000000e+00  -2.5691043518779732e-04 8.8218025184882406e-05 0.0000000000000000e+00  -2.8013942792592982e-04 9.9865548164447163e-05 0.0000000000000000e+00  -2.7971072188621640e-04 1.0249982932683188e-04 0.0000000000000000e+00  -3.4145423757259873e-04 1.2199618075921974e-04 0.0000000000000000e+00  -2.7158756204844679e-04 9.9789267551651545e-05 0.0000000000000000e+00  -2.0201076079407018e-04 7.8760697321763549e-05 0.0000000000000000e+00  -1.8158597803297473e-04 7.3466806941441135e-05 0.0000000000000000e+00  -2.0291166741292501e-04 7.9387285984912066e-05 0.0000000000000000e+00  -1.9896238831696678e-04 7.8159624652854759e-05 0.0000000000000000e+00  -1.9775305610802554e-04 7.7518302335097006e-05 0.0000000000000000e+00  -1.8032524372735273e-04 7.3059143318904887e-05 0.0000000000000000e+00  -2.3553572403073255e-04 8.9027049822452519e-05 0.0000000000000000e+00  -2.8923373358415855e-04 1.0537630025294291e-04 0.0000000000000000e+00  -2.0970072475511877e-04 8.0556691414676942e-05 0.0000000000000000e+00  -2.0826563076039271e-04 8.0073008042177632e-05 0.0000000000000000e+00  -1.5739743229665598e-04 7.1006245984024170e-05 0.0000000000000000e+00  -1.5748113028370999e-04 7.3218511689653867e-05 0.0000000000000000e+00  -1.9214471141570195e-04 8.7245932500479824e-05 0.0000000000000000e+00  -1.4760916092193758e-04 7.0394752872966759e-05 0.0000000000000000e+00  -1.1333238622380220e-04 5.5371898292769774e-05 0.0000000000000000e+00  -9.1174005177253881e-05 4.8618884948509127e-05 0.0000000000000000e+00  -1.1388195817310084e-04 5.5870839260783569e-05 0.0000000000000000e+00  -1.1163025435948596e-04 5.4954678512987823e-05 0.0000000000000000e+00  -1.1093219282363797e-04 5.4460879583428449e-05 0.0000000000000000e+00  -9.0332087327330197e-05 4.8290420021339798e-05 0.0000000000000000e+00  -1.3228991479757125e-04 6.2967860831525456e-05 0.0000000000000000e+00  -1.6746232338149200e-04 7.5236581278423177e-05 0.0000000000000000e+00  -1.2834687692157853e-04 5.9589828983029779e-05 0.0000000000000000e+00  -1.2768157161949004e-04 5.9281313840303399e-05 0.0000000000000000e+00  -3.9854301506325671e-06 3.0228748739325975e-05 0.0000000000000000e+00  -3.6827319822912867e-06 2.9656867862715573e-05 0.0000000000000000e+00  1.8280107143209431e-06 2.0416092058000277e-05 0.0000000000000000e+00  9.3723419471480172e-06 1.7686689488328420e-05 0.0000000000000000e+00  1.1116742615442418e-05 1.7066473712956349e-05 0.0000000000000000e+00  3.6800318789292766e-06 1.9635964877323114e-05 0.0000000000000000e+00  -8.2436199746508770e-06 2.5413241056450641e-05 0.0000000000000000e+00  -8.1974270780510259e-06 2.5481033409470603e-05 0.0000000000000000e+00  2.2251672806192618e-06 2.0052286885222732e-05 0.0000000000000000e+00  9.6804001167329458e-06 1.7359552490079431e-05 0.0000000000000000e+00  1.1925467690364391e-05 1.6512756784629792e-05 0.0000000000000000e+00  3.9181084734149745e-06 1.9379961868789470e-05 0.0000000000000000e+00  -1.7795403974565630e-05 3.4117424325767257e-05 0.0000000000000000e+00  -1.8187535535717216e-05 3.3646445957830068e-05 0.0000000000000000e+00  -1.8359965391865723e-05 2.6874739245213005e-05 0.0000000000000000e+00  -2.5636523556940741e-05 2.9096154537495516e-05 0.0000000000000000e+00  -2.3848641405451012e-05 2.8551363171006013e-05 0.0000000000000000e+00  -1.6575613178627109e-05 2.6467111527313686e-05 0.0000000000000000e+00  -2.3995851872270336e-05 2.8421528456773683e-05 0.0000000000000000e+00  -1.6770641479636889e-05 2.6305988330759250e-05 0.0000000000000000e+00  -1.8429540776889847e-05 2.6713041804448239e-05 0.0000000000000000e+00  -2.6194097581015886e-05 2.9011822542999506e-05 0.0000000000000000e+00  1.4274968585951337e-04 -1.5446997574377888e-05 0.0000000000000000e+00  1.4195073516313643e-04 -1.4759048721016268e-05 0.0000000000000000e+00  1.0811399185521696e-04 -1.5431447718301932e-05 0.0000000000000000e+00  1.1424178630069306e-04 -1.7908292174853229e-05 0.0000000000000000e+00  1.1281359076844024e-04 -1.7411083144997973e-05 0.0000000000000000e+00  1.0710265882920933e-04 -1.4981229662172154e-05 0.0000000000000000e+00  1.0738551297932041e-04 -1.2192001565201085e-05 0.0000000000000000e+00  1.0728474346875033e-04 -1.1960424404697503e-05 0.0000000000000000e+00  1.1192995840943404e-04 -1.7431155698927302e-05 0.0000000000000000e+00  1.0624447301952343e-04 -1.5024932930422534e-05 0.0000000000000000e+00  1.0734714382252869e-04 -1.5444946449825169e-05 0.0000000000000000e+00  1.1347064744790129e-04 -1.8073005574034969e-05 0.0000000000000000e+00  1.3151637706086737e-04 -1.1223168995135110e-05 0.0000000000000000e+00  1.2782111764626027e-04 -1.0128154401677284e-05 0.0000000000000000e+00  8.7487281376759455e-05 -7.9865759744788195e-06 0.0000000000000000e+00  7.9821352765884274e-05 -5.5093702250388865e-06 0.0000000000000000e+00  8.0828889779444046e-05 -6.0996815118881799e-06 0.0000000000000000e+00  8.9823786412765038e-05 -8.7490894231264629e-06 0.0000000000000000e+00  8.0212199268929547e-05 -6.0150996042283169e-06 0.0000000000000000e+00  8.8435181117689561e-05 -8.5895730771494814e-06 0.0000000000000000e+00  8.6430264069662903e-05 -7.9001456639786230e-06 0.0000000000000000e+00  7.7787271862019651e-05 -5.2129680667522626e-06 0.0000000000000000e+00  2.7120862824078334e-04 -5.8972627181581156e-05 0.0000000000000000e+00  2.6491736809112820e-04 -5.6014528819700834e-05 0.0000000000000000e+00  1.9590244677975273e-04 -4.8016801411718193e-05 0.0000000000000000e+00  1.9976454449999667e-04 -5.0013054416435276e-05 0.0000000000000000e+00  1.9753092532381081e-04 -4.9565390552824135e-05 0.0000000000000000e+00  1.9584050671044476e-04 -4.8010308315052853e-05 0.0000000000000000e+00  2.0654233613373051e-04 -4.7978486866209295e-05 0.0000000000000000e+00  2.0626735393396465e-04 -4.7341833830299864e-05 0.0000000000000000e+00  1.9671439678496319e-04 -4.9431179802162398e-05 0.0000000000000000e+00  1.9389729615920413e-04 -4.7736086314150812e-05 0.0000000000000000e+00  1.9425079081159072e-04 -4.7790697315620022e-05 0.0000000000000000e+00  1.9754044076074258e-04 -4.9779829360637010e-05 0.0000000000000000e+00  2.58595222644974