<?xml version="1.0"?>
<VTKFile type="UnstructuredGrid"  version="0.1"  >
<UnstructuredGrid>
<Piece  NumberOfPoints="2286" NumberOfCells="7828">
<Points>
<DataArray  type="Float64"  NumberOfComponents="3"  format="ascii">0.0235 0 0  1.43895998899814e-18 0.0235 0  -0.0235 2.87791997799628e-18 0  -4.31687996699442e-18 -0.0235 0  0.0235 0 0.225  1.43895998899814e-18 0.0235 0.225  -0.0235 2.87791997799628e-18 0.225  -4.31687996699442e-18 -0.0235 0.225  0.0235 0 0.275  1.43895998899814e-18 0.0235 0.275  -0.0235 2.87791997799628e-18 0.275  -4.31687996699442e-18 -0.0235 0.275  0.0235 0 1  1.43895998899814e-18 0.0235 1  -0.0235 2.87791997799628e-18 1  -4.31687996699442e-18 -0.0235 1  0.02171116900374584 0.008993060685372123 0  0.01661700932025773 0.01661700939551001 0  0.008993060633920176 0.02171116902505794 0  -0.008993060685372121 0.02171116900374584 0  -0.01661700939551001 0.01661700932025773 0  -0.02171116902505794 0.008993060633920177 0  -0.02171116900374584 -0.008993060685372119 0  -0.01661700932025773 -0.01661700939551001 0  -0.008993060633920179 -0.02171116902505794 0  0.008993060682702768 -0.02171116900485152 0  0.01661700939070213 -0.0166170093250656 0  0.0217111690237741 -0.008993060637019643 0  0.02171116900374584 0.008993060685372123 0.225  0.01661700932025773 0.01661700939551001 0.225  0.008993060633920176 0.02171116902505794 0.225  -0.008993060685372121 0.02171116900374584 0.225  -0.01661700939551001 0.01661700932025773 0.225  -0.02171116902505794 0.008993060633920177 0.225  -0.02171116900374584 -0.008993060685372119 0.225  -0.01661700932025773 -0.01661700939551001 0.225  -0.008993060633920179 -0.02171116902505794 0.225  0.008993060682702768 -0.02171116900485152 0.225  0.01661700939070213 -0.0166170093250656 0.225  0.0217111690237741 -0.008993060637019643 0.225  0.0235 0 0.009782608695633018  0.0235 0 0.01956521739126856  0.0235 0 0.02934782608690395  0.0235 0 0.03913043478252791  0.0235 0 0.04891304347815165  0.0235 0 0.0586956521737754  0.0235 0 0.06847826086939916  0.0235 0 0.0782608695650229  0.0235 0 0.08804347826064665  0.0235 0 0.09782608695627039  0.0235 0 0.1076086956518941  0.0235 0 0.1173913043475426  0.0235 0 0.1271739130432186  0.0235 0 0.1369565217388972  0.0235 0 0.1467391304345758  0.0235 0 0.1565217391302545  0.0235 0 0.1663043478259331  0.0235 0 0.1760869565216119  0.0235 0 0.1858695652172906  0.0235 0 0.1956521739129676  0.0235 0 0.2054347826086433  0.0235 0 0.2152173913043213  1.43895998899814e-18 0.0235 0.009782608695633018  1.43895998899814e-18 0.0235 0.01956521739126856  1.43895998899814e-18 0.0235 0.02934782608690395  1.43895998899814e-18 0.0235 0.03913043478252791  1.43895998899814e-18 0.0235 0.04891304347815165  1.43895998899814e-18 0.0235 0.0586956521737754  1.43895998899814e-18 0.0235 0.06847826086939916  1.43895998899814e-18 0.0235 0.0782608695650229  1.43895998899814e-18 0.0235 0.08804347826064665  1.43895998899814e-18 0.0235 0.09782608695627039  1.43895998899814e-18 0.0235 0.1076086956518941  1.43895998899814e-18 0.0235 0.1173913043475426  1.43895998899814e-18 0.0235 0.1271739130432186  1.43895998899814e-18 0.0235 0.1369565217388972  1.43895998899814e-18 0.0235 0.1467391304345758  1.43895998899814e-18 0.0235 0.1565217391302545  1.43895998899814e-18 0.0235 0.1663043478259331  1.43895998899814e-18 0.0235 0.1760869565216119  1.43895998899814e-18 0.0235 0.1858695652172906  1.43895998899814e-18 0.0235 0.1956521739129676  1.43895998899814e-18 0.0235 0.2054347826086433  1.43895998899814e-18 0.0235 0.2152173913043213  -0.0235 2.87791997799628e-18 0.009782608695633018  -0.0235 2.87791997799628e-18 0.01956521739126856  -0.0235 2.87791997799628e-18 0.02934782608690395  -0.0235 2.87791997799628e-18 0.03913043478252791  -0.0235 2.87791997799628e-18 0.04891304347815165  -0.0235 2.87791997799628e-18 0.0586956521737754  -0.0235 2.87791997799628e-18 0.06847826086939916  -0.0235 2.87791997799628e-18 0.0782608695650229  -0.0235 2.87791997799628e-18 0.08804347826064665  -0.0235 2.87791997799628e-18 0.09782608695627039  -0.0235 2.87791997799628e-18 0.1076086956518941  -0.0235 2.87791997799628e-18 0.1173913043475426  -0.0235 2.87791997799628e-18 0.1271739130432186  -0.0235 2.87791997799628e-18 0.1369565217388972  -0.0235 2.87791997799628e-18 0.1467391304345758  -0.0235 2.87791997799628e-18 0.1565217391302545  -0.0235 2.87791997799628e-18 0.1663043478259331  -0.0235 2.87791997799628e-18 0.1760869565216119  -0.0235 2.87791997799628e-18 0.1858695652172906  -0.0235 2.87791997799628e-18 0.1956521739129676  -0.0235 2.87791997799628e-18 0.2054347826086433  -0.0235 2.87791997799628e-18 0.2152173913043213  -4.31687996699442e-18 -0.0235 0.009782608695633018  -4.31687996699442e-18 -0.0235 0.01956521739126856  -4.31687996699442e-18 -0.0235 0.02934782608690395  -4.31687996699442e-18 -0.0235 0.03913043478252791  -4.31687996699442e-18 -0.0235 0.04891304347815165  -4.31687996699442e-18 -0.0235 0.0586956521737754  -4.31687996699442e-18 -0.0235 0.06847826086939916  -4.31687996699442e-18 -0.0235 0.0782608695650229  -4.31687996699442e-18 -0.0235 0.08804347826064665  -4.31687996699442e-18 -0.0235 0.09782608695627039  -4.31687996699442e-18 -0.0235 0.1076086956518941  -4.31687996699442e-18 -0.0235 0.1173913043475426  -4.31687996699442e-18 -0.0235 0.1271739130432186  -4.31687996699442e-18 -0.0235 0.1369565217388972  -4.31687996699442e-18 -0.0235 0.1467391304345758  -4.31687996699442e-18 -0.0235 0.1565217391302545  -4.31687996699442e-18 -0.0235 0.1663043478259331  -4.31687996699442e-18 -0.0235 0.1760869565216119  -4.31687996699442e-18 -0.0235 0.1858695652172906  -4.31687996699442e-18 -0.0235 0.1956521739129676  -4.31687996699442e-18 -0.0235 0.2054347826086433  -4.31687996699442e-18 -0.0235 0.2152173913043213  0.02171116900374584 0.008993060685372123 0.275  0.01661700932025773 0.01661700939551001 0.275  0.008993060633920176 0.02171116902505794 0.275  -0.008993060685372121 0.02171116900374584 0.275  -0.01661700939551001 0.01661700932025773 0.275  -0.02171116902505794 0.008993060633920177 0.275  -0.02171116900374584 -0.008993060685372119 0.275  -0.01661700932025773 -0.01661700939551001 0.275  -0.008993060633920179 -0.02171116902505794 0.275  0.008993060682702768 -0.02171116900485152 0.275  0.01661700939070213 -0.0166170093250656 0.275  0.0217111690237741 -0.008993060637019643 0.275  0.0235 0 0.2350000000000098  0.0235 0 0.2449999999999751  0.0235 0 0.2549999999999913  0.0235 0 0.2650000000000499  1.43895998899814e-18 0.0235 0.2350000000000098  1.43895998899814e-18 0.0235 0.2449999999999751  1.43895998899814e-18 0.0235 0.2549999999999913  1.43895998899814e-18 0.0235 0.2650000000000499  -0.0235 2.87791997799628e-18 0.2350000000000098  -0.0235 2.87791997799628e-18 0.2449999999999751  -0.0235 2.87791997799628e-18 0.2549999999999913  -0.0235 2.87791997799628e-18 0.2650000000000499  -4.31687996699442e-18 -0.0235 0.2350000000000098  -4.31687996699442e-18 -0.0235 0.2449999999999751  -4.31687996699442e-18 -0.0235 0.2549999999999913  -4.31687996699442e-18 -0.0235 0.2650000000000499  0.02171116900374584 0.008993060685372123 1  0.01661700932025773 0.01661700939551001 1  0.008993060633920176 0.02171116902505794 1  -0.008993060685372121 0.02171116900374584 1  -0.01661700939551001 0.01661700932025773 1  -0.02171116902505794 0.008993060633920177 1  -0.02171116900374584 -0.008993060685372119 1  -0.01661700932025773 -0.01661700939551001 1  -0.008993060633920179 -0.02171116902505794 1  0.008993060682702768 -0.02171116900485152 1  0.01661700939070213 -0.0166170093250656 1  0.0217111690237741 -0.008993060637019643 1  0.0235 0 0.2849315068492855  0.0235 0 0.2948630136985927  0.0235 0 0.3047945205478754  0.0235 0 0.3147260273971639  0.0235 0 0.3246575342464793  0.0235 0 0.3345890410957781  0.0235 0 0.3445205479450884  0.0235 0 0.3544520547944034  0.0235 0 0.3643835616436997  0.0235 0 0.3743150684929903  0.0235 0 0.3842465753422677  0.0235 0 0.3941780821915563  0.0235 0 0.404109589040844  0.0235 0 0.4140410958901382  0.0235 0 0.4239726027394345  0.0235 0 0.4339041095887194  0.0235 0 0.4438356164379967  0.0235 0 0.453767123287291  0.0235 0 0.4636986301365731  0.0235 0 0.4736301369858512  0.0235 0 0.4835616438351475  0.0235 0 0.4934931506844268  0.0235 0 0.5034246575337042  0.0235 0 0.5133561643829815  0.0235 0 0.5232876712322588  0.0235 0 0.5332191780815362  0.0235 0 0.5431506849308427  0.0235 0 0.5530821917801343  0.0235 0 0.5630136986294116  0.0235 0 0.5729452054787236  0.0235 0 0.5828767123280096  0.0235 0 0.5928082191772894  0.0235 0 0.6027397260266047  0.0235 0 0.612671232875885  0.0235 0 0.6226027397251704  0.0235 0 0.6325342465744858  0.0235 0 0.6424657534238012  0.0235 0 0.6523972602730949  0.0235 0 0.6623287671224701  0.0235 0 0.6722602739718093  0.0235 0 0.682191780821106  0.0235 0 0.6921232876704927  0.0235 0 0.702054794519815  0.0235 0 0.7119863013691238  0.0235 0 0.7219178082185151  0.0235 0 0.7318493150678205  0.0235 0 0.7417808219171462  0.0235 0 0.7517123287665306  0.0235 0 0.7616438356158259  0.0235 0 0.7715753424651688  0.0235 0 0.7815068493145509  0.0235 0 0.7914383561639043  0.0235 0 0.8013698630132374  0.0235 0 0.8113013698625676  0.0235 0 0.8212328767119209  0.0235 0 0.8311643835612486  0.0235 0 0.8410958904105844  0.0235 0 0.8510273972599377  0.0235 0 0.8609589041092596  0.0235 0 0.870890410958601  0.0235 0 0.8808219178079544  0.0235 0 0.8907534246572706  0.0235 0 0.9006849315066177  0.0235 0 0.9106164383559664  0.0235 0 0.9205479452052818  0.0235 0 0.9304794520546347  0.0235 0 0.9404109589039776  0.0235 0 0.9503424657532981  0.0235 0 0.9602739726026515  0.0235 0 0.9702054794519888  0.0235 0 0.9801369863013148  0.0235 0 0.9900684931506681  1.43895998899814e-18 0.0235 0.2849315068492855  1.43895998899814e-18 0.0235 0.2948630136985927  1.43895998899814e-18 0.0235 0.3047945205478754  1.43895998899814e-18 0.0235 0.3147260273971639  1.43895998899814e-18 0.0235 0.3246575342464793  1.43895998899814e-18 0.0235 0.3345890410957781  1.43895998899814e-18 0.0235 0.3445205479450884  1.43895998899814e-18 0.0235 0.3544520547944034  1.4389
[...]
<PointData  Scalars="f_84"> 
<DataArray  type="Float64"  Name="f_84"  format="ascii">1.0243401190251766e+00  1.0248053573211102e+00  1.0226108689329521e+00  1.0245598090925609e+00  2.5675951682739157e+01  2.5675083940020766e+01  2.5677352136584791e+01  2.5675598127576869e+01  2.8976324189204099e+01  2.8976222682344218e+01  2.8975360982603654e+01  2.8975702622342400e+01  9.5459574603197839e-01  9.5405116553060632e-01  9.5435003814911945e-01  9.5457384875630391e-01  1.0248963208490824e+00  1.0197699263737885e+00  1.0239599069127800e+00  1.0239537304411712e+00  1.0202491452786573e+00  1.0243770438611044e+00  1.0252057649052717e+00  1.0200752753601390e+00  1.0235984857015252e+00  1.0235404673280979e+00  1.0200018809191027e+00  1.0231860928112695e+00  2.5675269015130194e+01  2.5676693254501821e+01  2.5674345281822202e+01  2.5675153836375497e+01  2.5677099443767329e+01  2.5675442063303741e+01  2.5676282742954072e+01  2.5676210422647848e+01  2.5674505902371237e+01  2.5675704687349562e+01  2.5676916862081974e+01  2.5675139299738078e+01  2.1545374795396870e+00  3.3368556578360518e+00  4.5247934302154178e+00  5.7157480810188757e+00  6.9038451859583683e+00  8.0775711138279842e+00  9.2420557979649693e+00  1.0398222675508958e+01  1.1549754771271621e+01  1.2687841907426176e+01  1.3807345415640002e+01  1.4909009762494211e+01  1.5993241634160281e+01  1.7056199528877951e+01  1.8104413273842528e+01  1.9135964294986778e+01  2.0146216211497130e+01  2.1132259988233770e+01  2.2098634950432011e+01  2.3038604732861394e+01  2.3949230787294759e+01  2.4830419263394241e+01  2.1557820490487702e+00  3.3369908436415439e+00  4.5293215836917025e+00  5.7174436576152381e+00  6.8977769818655652e+00  8.0721773778727925e+00  9.2472304049808169e+00  1.0404984314206274e+01  1.1550120049628744e+01  1.2678528453601599e+01  1.3803591828808411e+01  1.4904873378349498e+01  1.5991140181537924e+01  1.7061003553737205e+01  1.8108662295461066e+01  1.9140205491995975e+01  2.0147982902387778e+01  2.1132537210415791e+01  2.2095023964739326e+01  2.3033570425413362e+01  2.3947251978493746e+01  2.4830453003628215e+01  2.1547000185799536e+00  3.3368156633390123e+00  4.5241066325806303e+00  5.7174687671450561e+00  6.9055839152051179e+00  8.0792220868002591e+00  9.2449594282448881e+00  1.0400144145871781e+01  1.1544249383206767e+01  1.2682849472207602e+01  1.3803119779284495e+01  1.4905952996970740e+01  1.5993477860952183e+01  1.7061647955539453e+01  1.8110660799471255e+01  1.9139786890084181e+01  2.0150073284993475e+01  2.1133105346203607e+01  2.2096377088493632e+01  2.3033125431456821e+01  2.3945344695101799e+01  2.4830749557036807e+01  2.1550466475959986e+00  3.3364261068384842e+00  4.5231356580153577e+00  5.7152989079708139e+00  6.9029792889100827e+00  8.0747782652295825e+00  9.2442582978383800e+00  1.0406902781877028e+01  1.1547356360923121e+01  1.2682873643974908e+01  1.3802281624139852e+01  1.4910164244361628e+01  1.5997518582873793e+01  1.7061204792876357e+01  1.8110361847276469e+01  1.9140530569274084e+01  2.0147942601739633e+01  2.1132725910062867e+01  2.2095030445643673e+01  2.3033735213044565e+01  2.3946247937075544e+01  2.4830204660245393e+01  2.8976065997212402e+01  2.8975177681760734e+01  2.8974508702385414e+01  2.8974763818420442e+01  2.8974139318893030e+01  2.8974357107677918e+01  2.8975164932946956e+01  2.8974995637601257e+01  2.8975270075817008e+01  2.8975835554041165e+01  2.8975509975480158e+01  2.8975508199549882e+01  2.6507497909471510e+01  2.7316926246077298e+01  2.7981033128079236e+01  2.8490766218969576e+01  2.6508104560838873e+01  2.7310883597576449e+01  2.7989190194132537e+01  2.8490276850408684e+01  2.6515868373383295e+01  2.7348932527374714e+01  2.7947400561409168e+01  2.8485631752590049e+01  2.6513768572786400e+01  2.7331374562071492e+01  2.7961448265560275e+01  2.8488098919175400e+01  9.5433072902223381e-01  9.5053276046981483e-01  9.5353529811544824e-01  9.5338947803219265e-01  9.5018865439655309e-01  9.5351133275217559e-01  9.5441617844314652e-01  9.5038889449587249e-01  9.5370775476981440e-01  9.5411027942844284e-01  9.5101307148843162e-01  9.5377171129018257e-01  2.9437637524198291e+01  2.9879249982280257e+01  3.0296336434296684e+01  3.0694082758216464e+01  3.1063826292328937e+01  3.1409606843684102e+01  3.1728849456103749e+01  3.2021507497955113e+01  3.2289941520050000e+01  3.2532754637133664e+01  3.2748768236446843e+01  3.2938805912443968e+01  3.3102931348032129e+01  3.3237818789721906e+01  3.3347493432053888e+01  3.3429749881204650e+01  3.3485581175282285e+01  3.3513937057515108e+01  3.3517107297289265e+01  3.3491156825356619e+01  3.3439547315607129e+01  3.3361060605923434e+01  3.3256018690477049e+01  3.3121721806114415e+01  3.2962782919465674e+01  3.2776411088853365e+01  3.2565322483210885e+01  3.2324968450065796e+01  3.2060323490444844e+01  3.1769147374202294e+01  3.1454556061314079e+01  3.1111143524329545e+01  3.0746044820778373e+01  3.0353267224315047e+01  2.9937201335892091e+01  2.9496806023293214e+01  2.9033839636434351e+01  2.8547901955929014e+01  2.8035777030594158e+01  2.7502596711716986e+01  2.6948680796108668e+01  2.6369730456175045e+01  2.5771486383517068e+01  2.5155738358780770e+01  2.4515281139561303e+01  2.3855702688028689e+01  2.3179503087805539e+01  2.2480899420975607e+01  2.1767001708096760e+01  2.1033489579964268e+01  2.0286522206835020e+01  1.9519507376628550e+01  1.8739063616344946e+01  1.7940032079474559e+01  1.7129970670998794e+01  1.6309207238963960e+01  1.5472588124943426e+01  1.4620334094859611e+01  1.3759352401392359e+01  1.2885901044033375e+01  1.2002937513903364e+01  1.1110882283852572e+01  1.0210001771915968e+01  9.2984688229982595e+00  8.3842187217887236e+00  7.4578978687571196e+00  6.5264151624040432e+00  5.5965036603273344e+00  4.6565708665389707e+00  3.7143071865106316e+00  2.7752105304044590e+00  1.8442887168321367e+00  2.9437333815402454e+01  2.9879037546720358e+01  3.0298081339698410e+01  3.0693110285171901e+01  3.1064093640161847e+01  3.1410024819291028e+01  3.1727016917732637e+01  3.2022293929959268e+01  3.2290502826215857e+01  3.2533241764132619e+01  3.2749027976587321e+01  3.2939225010331462e+01  3.3100569360398865e+01  3.3238988598016078e+01  3.3348345774978796e+01  3.3430741575844529e+01  3.3484737054650374e+01  3.3515552816554397e+01  3.3517004467722806e+01  3.3489580887659329e+01  3.3439975169263995e+01  3.3359957936793478e+01  3.3253760345198344e+01  3.3121077812168359e+01  3.2963834059665388e+01  3.2778737352159951e+01  3.2565146786928338e+01  3.2326012881740795e+01  3.2060497534320994e+01  3.1770194129675936e+01  3.1454044570923674e+01  3.1111003968485623e+01  3.0743779359621612e+01  3.0354196552714928e+01  2.9936484970423717e+01  2.9498905636100080e+01  2.9034548722130062e+01  2.8546932083429652e+01  2.8035073499580498e+01  2.7501452588468688e+01  2.6948171585692254e+01  2.6369480774249666e+01  2.5773030730144953e+01  2.5154300939718027e+01  2.4516286791862200e+01  2.3856503063180849e+01  2.3178147941941994e+01  2.2482148444775859e+01  2.1767191254711239e+01  2.1032864156369730e+01  2.0284357895674578e+01  1.9519836140932991e+01  1.8739098934175971e+01  1.7943216261037993e+01  1.7128183763230055e+01  1.6309121639438430e+01  1.5474822482497679e+01  1.4622237204441737e+01  1.3755309138690523e+01  1.2887123942793906e+01  1.2003063057824152e+01  1.1109667832930507e+01  1.0208745518339200e+01  9.2995785408557978e+00  8.3843254991959153e+00  7.4588515341219903e+00  6.5275041307189561e+00  5.5970463262186509e+00  4.6580010327022050e+00  3.7111482691742630e+00  2.7743065135987077e+00  1.8440668594166989e+00  2.9437532036448243e+01  2.9879824420293247e+01  3.0297082820998288e+01  3.0693335602762765e+01  3.1063835897433950e+01  3.1409804497996817e+01  3.1726978922629982e+01  3.2021267059878184e+01  3.2289105039909593e+01  3.2532708492704771e+01  3.2747518657213874e+01  3.2939017155813445e+01  3.3101786817560928e+01  3.3237713056357400e+01  3.3350063980680567e+01  3.3428823234850086e+01  3.3485782189676534e+01  3.3516483738871372e+01  3.3515743648345584e+01  3.3491567644445091e+01  3.3436721052916440e+01  3.3361977222572854e+01  3.3254953716812850e+01  3.3121869341333650e+01  3.2963019962846012e+01  3.2776247624563560e+01  3.2565354074541844e+01  3.2323903243003926e+01  3.2060185765815838e+01  3.1769114867354823e+01  3.1453093801047164e+01  3.1113350407165694e+01  3.0744500312945021e+01  3.0356722840443123e+01  2.9936189607830482e+01  2.9498137693868919e+01  2.9033884799205580e+01  2.8544590574555649e+01  2.8033677364712165e+01  2.7503056802097472e+01  2.6947667982867376e+01  2.6372198589851475e+01  2.5775490194972331e+01  2.5152123857574040e+01  2.4512173474489508e+01  2.3857014027101201e+01  2.3177571025437729e+01  2.2482637232869259e+01  2.1767535613686533e+01  2.1035347868583013e+01  2.0287707007066288e+01  1.9519436182171550e+01  1.8737683266262582e+01  1.7941314365720164e+01  1.7131275764084730e+01  1.6307691201748860e+01  1.5470732850435830e+01  1.4621037822586308e+01  1.3759412019080827e+01  1.2887146734462135e+01  1.2004364893805125e+01  1.1110148358798741e+01  1.0208599829638091e+01  9.2987487058682330e+00  8.3815442820887061e+00  7.4582192922664250e+00  6.5312762431551441e+00  5.5934999305819755e+00  4.6564391249665578e+00  3.7166317960873343e+00  2.7753962934122582e+00  1.8445403547717367e+00  2.9437271031951955e+01  2.9879231806912490e+01  3.0298329149508792e+01  3.0694686709617798e+01  3.1061594550677324e+01  3.1408767890710472e+01  3.1728293297428547e+01  3.2021570923125985e+01  3.2291432975967496e+01  3.2530632859158153e+01  3.2748912800097116e+01  3.2938575845766358e+01  3.3100754093990574e+01  3.3238592560121354e+01  3.3346172063869950e+01  3.3429624096471109e+01  3.3486874047760402e+01  3.3516048247192913e+01  3.3516660311576516e+01  3.3492759843125910e+01  3.3440565015049280e+01  3.3359579426766444e+01  3.3255208115098014e+01  3.3121238814275053e+01  3.2962744761918209e+01  3.2776783511463243e+01  3.2564174179537439e+01  3.2324979630018717e+01  3.2061949163797678e+01  3.1770225014196733e+01  3.1455419961429165e+01  3.1112892134724305e+01  3.0744182972812069e+01  3.0353666472752465e+01  2.9938007700173483e+01  2.9496961536436640e+01  2.9033984216811568e+01  2.8544986069602533e+01  2.8036004184000706e+01  2.7502527130768023e+01  2.6947550463601626e+01  2.6373283756257219e+01  2.5771189249197192e+01  2.5153212332941855e+01  2.4514059694337313e+01  2.3856363230852462e+01  2.3179927919540724e+01  2.2482904214964915e+01  2.1766640272172932e+01  2.1035420844276814e+01  2.0285029387497136e+01  1.9518940639123738e+01  1.8737993913757084e+01  1.7942583739552621e+01  1.7132708447233227e+01  1.6306498505694162e+01  1.5469845791965831e+01  1.4622273730336650e+01  1.3763406609181581e+01  1.2886432247460466e+01  1.1999812670876173e+01  1.1107736339404571e+01  1.0207930671718932e+01  9.2976696728092758e+00  8.3806756709137762e+00  7.4572339805624583e+00  6.5285589928536565e+00  5.5947838770652556e+00  4.6573386011861553e+00  3.7170003292074707e+00  2.7771740243913858e+00  1.8446847639122443e+00  1.0144165631990223e+00  1.0147223288480016e+00  1.0143379833621731e+00  1.0136806320796898e+00  1.0141372956482670e+00  1.0142794109356508e+00  1.0137158379739546e+00  1.0151055930555424e+00  1.0160468084816938e+00  1.0130314324126404e+00  1.0130539593547918e+00  1.0128465831045332e+00  1.0127829023922184e+00  1.0127302610684328e+00  1.0127913702517293e+00  1.0174542428815745e+00  1.0166954664597994e+00  1.0157847161733855e+00  1.0150473854430146e+00  1.0145078539509436e+00  1.0151302719082311e+00  1.0144921926547199e+00  1.0130462652400449e+00  1.0128823188063005e+00  1.0131827557496191e+00  2.5676952628851655e+01  2.5676073346493016e+01  2.5677528877408932e+01  2.5677280426874944e+01  2.5677678948801187e+01  2.5677369979678641e+01  2.5678508683883269e+01  2.5678380289641179e+01  2.5677390371534003e+01  2.5677578611414287e+01  2.5677633456387319e+01  2.5679900056507993e+01  2.5678820310977898e+01  2.5677163698237560e+01  2.5677516409140740e+01  2.5679322279888940e+01  2.5677013018544702e+01  2.5677768152659549e+01  2.5677634548430689e+01  2.5677032448585827e+01  2.5678523484132139e+01  2.5677279056488572e+01  2.5678114115569326e+01  2.5677671839118126e+01  2.5678088283620649e+01  1.2115863026147625e+01  8.6617888856552483e+00  6.3065763638667685e+00  3.9685951911152562e+00  1.4358055094427101e+01  2.3477130435204241e+01  1.6551638628129226e+01  2.1619757604681016e+01  1.8626510824705687e+01  9.7351833668932670e+00  7.4932240181802099e+00  5.1194346016146834e+00  1.3248431801035544e+01  1.5463458897771323e+01  2.2578971691884561e+01  2.0644998243651553e+01  1.7590828447635268e+01  1.9641594180776135e+01  2.8075533958646521e+00  2.4342646256160091e+01  1.8068656004461754e+00  2.5085473602609671e+01  2.3477190464010587e+01  2.3790438001218156e+01  3.9490065934980998e+00  3.5473437703528083e+00  1.4354060919663278e+01  1.3800250008870695e+01  1.2684891391118070e+01  1.3245152716443030e+01  1.1429334878811169e+01  1.4949370954465444e+01  1.5998357206602858e+01  1.2007025250385833e+01  1.0959991497914590e+01  1.0352593805535570e+01  1.5447629852647667e+01  1.7040101310265776e+01  2.1618146337726394e+01  2.1133420048672683e+01  2.0149507442121003e+01  2.0644419849460657e+01  2.2119494615660951e+01  1.9095294945644397e+01  1.8625200571429332e+01  2.2567212318578669e+01  1.9650616333897073e+01  5.1460270348506079e+00  5.7167190910693382e+00  6.8961954376216443e+00  6.3085905063323091e+00  8.1264943658393278e+00  4.5516994633945709e+00  8.6451099216748606e+00  7.4816484024320440e+00  2.3045022600665323e+01  9.8294189266072944e+00  1.6527514571815829e+01  9.2655752686295276e+00  1.7588409696951988e+01  1.8111899373820268e+01  2.4316203586191410e+01  2.8412083039339695e+00  1.7801982224272201e+00  2.5105641933932795e+01  1.0902679282022371e+01  2.5072168749313676e+01  1.8031748660630016e+00  1.7998375665457360e+00  2.5091282172911971e+01  2.4559177587782447e+01  2.5175624041078386e+00  1.2112720422699841e+01  9.8250083098363206e+00  6.3047541150010291e+00  3.9319266986219743e+00  1.4320998078638580e+01  2.3471727060663198e+01  1.6530063938725981e+01  2.1614948993554918e+01  1.8649296050183057e+01  1.0972260160644906e+01  7.4962789580023577e+00  1.5449375009802599e+01  2.2578261020464680e+01  2.0651628691394592e+01  1.7598878352689994e+01  1.9659215028999537e+01  2.8091381607469179e+00  2.4342195650910821e+01  1.8073950760001987e+00  2.5085526892155734e+01  2.3477723332418826e+01  2.3788551904314037e+01  3.9589569127859607e+00  3.5424498594146749e+00  4.6441323761610143e+00  5.1732325329615865e+00  1.4355456182863048e+01  1.4903268616074293e+01  1.3786964055767983e+01  1.5991157864497076e+01  1.3196477027807870e+01  1.5372504286946871e+01  1.7101865951001948e+01  1.2664674480270021e+01  1.7587664151839018e+01  1.6530361949671917e+01  1.8116049696520886e+01  1.9145191372720511e+01  1.3239712503558588e+01  1.1533154229398233e+01  2.1626338468005624e+01  2.1172721151655843e+01  2.0648894896543865e+01  2.2090999506026968e+01  2.2558192314329503e+01  5.1238598356084353e+00  5.7765405906098888e+00  6.8951393436715529e+00  9.8238491993942247e+00  1.0401489864522592e+01  9.2327005990219639e+00  8.6291292338656582e+00  8.6611542402566393e+00  8.0608717758393738e+00  2.3067889534439587e+01  1.2071524524655938e+01  6.3598312481550057e+00  7.4754655718104122e+00  2.0165819075457772e+01  1.0982191551638973e+01  1.8635163589663719e+01  1.9664170567534306e+01  2.4316494176211876e+01  2.8519267513252942e+00  1.7814591146524950e+00  2.5105623016479583e+01  2.5071726513997373e+01  1.8039644045828740e+00  1.7990965047340171e+00  2.5091853571201931e+01  2.4559893127327101e+01  2.5168702163061671e+00  1.2112717361209379e+01  9.8242330029151450e+00  6.3101614606871221e+00  3.9311589313662210e+00  1.4319783071842810e+01  2.3472819843279076e+01  1.6532013061200104e+01  2.1618197138535329e+01  1.8648992834307865e+01  1.0976675603260468e+01  7.5326218810200496e+00  1.5450203673481299e+01  2.2576673883778863e+01  2.0651721456583111e+01  1.7599250866378650e+01  1.9661014584900325e+01  2.8093245440450549e+00  2.4342236792423652e+01  1.8063281836310119e+00  2.5086191667416585e+01  2.3478190649752996e+01  2.3787159443014225e+01  3.9569662287006881e+00  3.5428720213781464e+00  4.6438579912956088e+00  5.1723663020077426e+00  1.4355999668473064e+01  1.4903957983889391e+01  1.3786683811524178e+01  1.5990303013985638e+01  1.3196778334021548e+01  1.5374658082294319e+01  1.7102046677925639e+01  1.2663421589485601e+01  1.7586345315701362e+01  1.6531687705439079e+01  1.8116672381191439e+01  1.9145214973022870e+01  1.3240295817077449e+01  1.1535849537497958e+01  2.1622041125596503e+01  2.1173397210972407e+01  2.0648677037719452e+01  2.2091565663146341e+01  2.2558934302468558e+01  5.1304121000221290e+00  5.7779789594407536e+00  6.8973142697002228e+00  7.4909584360956307e+00  8.0906783572679526e+00  8.7114542656947158e+00  8.6622089666933046e+00  9.2627366797133330e+00  2.3066442160872406e+01  9.8723207846742227e+00  1.2071483453927744e+01  6.3593479942646418e+00  2.0166987135765339e+01  1.0410847236416192e+01  1.0975297061831226e+01  1.8637237176970643e+01  1.9663318671208081e+01  2.4316692384845762e+01  2.8511529984718189e+00  1.7804634564632809e+00  2.5106012737631893e+01  2.5072804769522563e+01  1.8029703947425810e+00  1.8002874479507638e+00  2.5091213256825252e+01  2.4560474103006015e+01  2.5168536778432418e+00  1.0978784647353482e+01  8.6882027869033482e+00  1.3242660826673250e+01  6.3700058786415896e+00  3.9313642755703220e+00  1.5457872909076933e+01  2.3493195184413036e+01  2.1620296732284402e+01  1.7477116151611767e+01  1.9646706068875453e+01  9.8336546746323830e+00  7.5015340721340467e+00  5.1193459995764794e+00  1.4361319215510918e+01  2.0640789850909339e+01  2.4341387848375014e+01  2.8108660757453037e+00  1.7580452796512350e+01  2.5085838883348487e+01  1.8067450264445777e+00  3.9547366992235418e+00  3.5412451019942575e+00  2.3475191495322932e+01  2.3792108495912249e+01  2.2952858454234928e+01  2.2532670015221949e+01  4.6286812220710658e+00  5.7027486809183658e+00  5.1338035652286829e+00  6.9413019961968807e+00  2.2556414458674343e+01  2.2051604065821731e+01  2.1141759706980569e+01  7.4886756660862579e+00  2.0645922136102772e+01  2.0147102379570473e+01  1.9150712981471663e+01  1.9642380596211012e+01  1.8619560289033377e+01  1.7860394345166881e+01  1.6842182670519353e+01  1.8609051877411826e+01  6.3048306801620040e+00  8.0779163322962546e+00  9.2041142011914303e+00  1.5408701354334067e+01  1.4911579966686062e+01  1.3806202231803498e+01  1.4361068089104080e+01  1.2565693816855854e+01  1.3135469303864346e+01  1.2099580093495529e+01  1.1501840397402709e+01  1.6530272223725753e+01  2.1578807414542855e+01  1.0965753905093285e+01  8.6652795575887662e+00  9.8340224899872464e+00  1.5922621443426261e+01  1.0393085790795675e+01  2.4310621189473331e+01  2.8512525934263140e+00  2.5105823906211008e+01  1.7818552762578459e+00  1.2069376167855175e+01  1.6526623454020609e+01  1.8030239789368327e+00  2.5089390437296057e+01  2.5091356636464894e+01  1.7986129944798266e+00  1.7056552086783434e+01  2.5174959601150158e+00  2.4562076006879305e+01  1.6062614909001745e+01  2.8976350317557454e+01  2.8977358197736244e+01  2.8976906167798635e+01  2.8976925681378155e+01  2.8977561122079766e+01  2.8976379301505279e+01  2.8977749983199661e+01  2.8975537655080078e+01  2.8976510499471210e+01  2.8976679013564596e+01  2.8976884708392937e+01  2.8977345844917856e+01  2.8976509499612767e+01  2.8978279227164688e+01  2.8976919438648927e+01  2.8978111471986161e+01  2.8976544058978391e+01  2.8977504160941407e+01  2.8977395991805462e+01  2.8977801429663359e+01  2.8978201194858400e+01  2.8976108783568478e+01  2.8978698394925502e+01  2.8977031854498364e+01  2.8977610260609449e+01  2.7691754429441016e+01  2.6890685912191451e+01  2.8246522952744822e+01  2.8630781304489915e+01  2.6272175722907281e+01  2.7699080993020829e+01  2.7926917415473003e+01  2.7374195442798129e+01  2.6886730239390662e