<?xml version="1.0"?>
<VTKFile type="UnstructuredGrid"  version="0.1"  >
<UnstructuredGrid>
<Piece  NumberOfPoints="13956" NumberOfCells="62604">
<Points>
<DataArray  type="Float64"  NumberOfComponents="3"  format="ascii">0.0235 0 0  1.43895998899814e-18 0.0235 0  -0.0235 2.87791997799628e-18 0  -4.31687996699442e-18 -0.0235 0  0.02304845408704707 0.004584622579589641 0  0.02171116900374584 0.008993060685372123 0  0.01953953586688963 0.01305590050921551 0  0.01661700932025773 0.01661700939551001 0  0.01305590044343904 0.01953953591084006 0  0.008993060633920176 0.02171116902505794 0  0.004584622553450596 0.02304845409224645 0  -0.004584622579589639 0.02304845408704707 0  -0.008993060685372121 0.02171116900374584 0  -0.0130559005092155 0.01953953586688963 0  -0.01661700939551001 0.01661700932025773 0  -0.01953953591084006 0.01305590044343904 0  -0.02171116902505794 0.008993060633920177 0  -0.02304845409224645 0.004584622553450598 0  -0.02304845408704707 -0.004584622579589638 0  -0.02171116900374584 -0.008993060685372119 0  -0.01953953586688963 -0.0130559005092155 0  -0.01661700932025773 -0.01661700939551001 0  -0.01305590044343904 -0.01953953591084006 0  -0.008993060633920179 -0.02171116902505794 0  -0.004584622553450599 -0.02304845409224645 0  0.004584622578019228 -0.02304845408735944 0  0.008993060682702768 -0.02171116900485152 0  0.01305590050549285 -0.01953953586937703 0  0.01661700939070213 -0.0166170093250656 0  0.01953953590741696 -0.01305590044856207 0  0.0217111690237741 -0.008993060637019643 0  0.02304845409188477 -0.004584622555268903 0  -0.001912333495011755 -0.01981461924348465 0  0.001987278762996284 0.01896853872713419 0  -0.01969727057781175 0.002112862961672742 0  0.01961804387123778 -0.001773926257248542 0  0.01230547272414729 -0.0149942618451002 0  0.01471660066589349 0.01191905187589887 0  -0.01278837383810122 0.01528284432202561 0  -0.01419328667099025 -0.01168130694187816 0  -0.005383897986607728 0.01819762626084004 0  -0.01881127874416573 -0.005897367728944836 0  0.01856199215608093 0.005630718778635427 0  0.005314122844059298 -0.01891040484016222 0  0.009128850394700499 0.01719033445756523 0  -0.01710277184204112 0.009143255016680757 0  0.016842072079766 -0.009041303704312529 0  -0.009143791095740813 -0.01710682998452964 0  -0.00958691661983138 0.01772417597381678 0  -0.008449375386649957 0.01367273408872162 0  -0.003233421101312337 0.01402638282142789 0  -0.005138046011466927 0.009930905466808457 0  -0.0004966133330572936 0.0105471467997098 0  -0.002255625782192102 0.00632254712443129 0  0.002311305531481612 0.00694360004482925 0  0.0005548784657922046 0.002695780084241846 0  -0.00399966926103644 0.002079565221127333 0  -0.001198274083577325 -0.001562354067127481 0  0.003366333670683102 -0.000951235153678697 0  0.001611405643022312 -0.005210202289470106 0  -0.005764896547682785 -0.00217148142550517 0  0.00617738705010511 -0.004600029134266307 0  0.007932297823195242 -0.0003405937938312808 0  -0.008561832781950451 0.001457390591718989 0  0.00442239537783462 -0.0088593409057616 0  -0.0001439504563274076 -0.009469094933668801 0  -0.01030759832980114 -0.002766758349684262 0  -0.007516994289976807 -0.006427532610129516 0  0.01067521454362642 -0.003961793187614893 0  0.01234991270630702 0.000315847501098893 0  0.009687155015833619 0.003919106436383098 0  -0.009690574367264403 0.009108897856293199 0  0.004005229541737852 0.01114200157970227 0  -0.01287009730237811 0.0007733719646160263 0  0.002647298791088795 -0.01296844006955249 0  -0.01192274527247384 -0.006980767955202088 0  -0.009074233894961287 -0.01052846060669273 0  -0.001894770463414842 -0.01339451003398969 0  0.00783179690336578 -0.01274368143708953 0  0.008994091071694915 -0.008127630472267881 0  -0.002953811566610279 -0.005819944649239578 0  -0.004620798360586246 -0.009954714536984877 0  0.005121306278078824 0.003305534191192108 0  0.00686601969449733 0.007551411582480909 0  0.009198068815544443 0.01239154007213104 0  0.01169447649089118 0.008091539563186008 0  0.001198169978868001 0.01467508329013539 0  -0.006837120698950002 0.005656046614332513 0  0.01405379357998118 0.00455873520708564 0  -0.01126921378434503 0.004816783622407205 0  -0.01513663429993266 -0.003442941284211276 0  0.01549756376504938 -0.00381441850067607 0  -0.01574240795482426 0.004383341884410167 0  0.01273711211082602 -0.007212123229448407 0  -0.006335593248312457 -0.01438816111434254 0  0.005288139725860637 0.01548566321257973 0  -0.01300714946132875 0.01131404346091439 0  0.01651274224660547 0.001101466049715319 0  0.01550494558086129 0.008094641787528271 0  -0.01779050923330704 -0.009509225331009922 0  -0.001977245501642569 0.02007531034621067 0  -0.01944772276321345 -0.002005148296928072 0  0.008795559894551743 -0.01718791370686336 0  0.01539614183920516 -0.01296478912108221 0  0.001754831792065699 -0.02034364514383263 0  0.005892361346475774 0.01929784151909237 0  0.0193434605663424 -0.005641466330905138 0  0.01254328592796704 0.01553149434238904 0  -0.01279726436524166 -0.01559351180939101 0  -0.005833491804517794 -0.01910713434721109 0  0.01235111445483419 -0.01084729830155013 0  -0.0194604146983963 0.005843428610026888 0  0.02023370472320558 0.001992845978714707 0  0.001054790892836652 -0.0167393463700561 0  -0.01352735913672378 0.007677044671247241 0  -0.01655421866268675 0.0001976921326526769 0  -0.01600412748481579 0.01316207082386651 0  -0.01551103324948113 -0.007204035829395267 0  -0.003216947995909492 -0.01663921759123238 0  0.01823604463354334 0.009703396294793739 0  0.005199387420623084 -0.01547410681610226 0  -0.01020950646188672 -0.0138750126867538 0  -0.001316359751059895 0.01696130770861234 0  0.0235 0 0.225  1.43895998899814e-18 0.0235 0.225  0.02304845408704707 0.004584622579589641 0.225  0.02171116900374584 0.008993060685372123 0.225  0.01953953586688963 0.01305590050921551 0.225  0.01661700932025773 0.01661700939551001 0.225  0.01305590044343904 0.01953953591084006 0.225  0.008993060633920176 0.02171116902505794 0.225  0.004584622553450596 0.02304845409224645 0.225  0.0235 0 0.004999999999990492  0.0235 0 0.00999999999998038  0.0235 0 0.01499999999997059  0.0235 0 0.01999999999996362  0.0235 0 0.02499999999995545  0.0235 0 0.02999999999994574  0.0235 0 0.03499999999993121  0.0235 0 0.03999999999991668  0.0235 0 0.04499999999990215  0.0235 0 0.04999999999988763  0.0235 0 0.05499999999987309  0.0235 0 0.05999999999985856  0.0235 0 0.06499999999984404  0.0235 0 0.06999999999982952  0.0235 0 0.07499999999981498  0.0235 0 0.07999999999980045  0.0235 0 0.08499999999978593  0.0235 0 0.08999999999977139  0.0235 0 0.09499999999975686  0.0235 0 0.09999999999974234  0.0235 0 0.1049999999997278  0.0235 0 0.1099999999997133  0.0235 0 0.1149999999997088  0.0235 0 0.1199999999997243  0.0235 0 0.1249999999997356  0.0235 0 0.1299999999997495  0.0235 0 0.1349999999997615  0.0235 0 0.1399999999997767  0.0235 0 0.1449999999997875  0.0235 0 0.1499999999998038  0.0235 0 0.1549999999998147  0.0235 0 0.1599999999998309  0.0235 0 0.1649999999998419  0.0235 0 0.1699999999998544  0.0235 0 0.1749999999998692  0.0235 0 0.1799999999998801  0.0235 0 0.1849999999998964  0.0235 0 0.1899999999999074  0.0235 0 0.1949999999999237  0.0235 0 0.1999999999999346  0.0235 0 0.2049999999999476  0.0235 0 0.2099999999999618  0.0235 0 0.2149999999999727  0.0235 0 0.2199999999999891  1.43895998899814e-18 0.0235 0.004999999999990492  1.43895998899814e-18 0.0235 0.00999999999998038  1.43895998899814e-18 0.0235 0.01499999999997059  1.43895998899814e-18 0.0235 0.01999999999996362  1.43895998899814e-18 0.0235 0.02499999999995545  1.43895998899814e-18 0.0235 0.02999999999994574  1.43895998899814e-18 0.0235 0.03499999999993121  1.43895998899814e-18 0.0235 0.03999999999991668  1.43895998899814e-18 0.0235 0.04499999999990215  1.43895998899814e-18 0.0235 0.04999999999988763  1.43895998899814e-18 0.0235 0.05499999999987309  1.43895998899814e-18 0.0235 0.05999999999985856  1.43895998899814e-18 0.0235 0.06499999999984404  1.43895998899814e-18 0.0235 0.06999999999982952  1.43895998899814e-18 0.0235 0.07499999999981498  1.43895998899814e-18 0.0235 0.07999999999980045  1.43895998899814e-18 0.0235 0.08499999999978593  1.43895998899814e-18 0.0235 0.08999999999977139  1.43895998899814e-18 0.0235 0.09499999999975686  1.43895998899814e-18 0.0235 0.09999999999974234  1.43895998899814e-18 0.0235 0.1049999999997278  1.43895998899814e-18 0.0235 0.1099999999997133  1.43895998899814e-18 0.0235 0.1149999999997088  1.43895998899814e-18 0.0235 0.1199999999997243  1.43895998899814e-18 0.0235 0.1249999999997356  1.43895998899814e-18 0.0235 0.1299999999997495  1.43895998899814e-18 0.0235 0.1349999999997615  1.43895998899814e-18 0.0235 0.1399999999997767  1.43895998899814e-18 0.0235 0.1449999999997875  1.43895998899814e-18 0.0235 0.1499999999998038  1.43895998899814e-18 0.0235 0.1549999999998147  1.43895998899814e-18 0.0235 0.1599999999998309  1.43895998899814e-18 0.0235 0.1649999999998419  1.43895998899814e-18 0.0235 0.1699999999998544  1.43895998899814e-18 0.0235 0.1749999999998692  1.43895998899814e-18 0.0235 0.1799999999998801  1.43895998899814e-18 0.0235 0.1849999999998964  1.43895998899814e-18 0.0235 0.1899999999999074  1.43895998899814e-18 0.0235 0.1949999999999237  1.43895998899814e-18 0.0235 0.1999999999999346  1.43895998899814e-18 0.0235 0.2049999999999476  1.43895998899814e-18 0.0235 0.2099999999999618  1.43895998899814e-18 0.0235 0.2149999999999727  1.43895998899814e-18 0.0235 0.2199999999999891  0.02310450287779724 0.004293244317513207 0.2075129068309748  0.02309209476313017 0.004359490732943061 0.01759397853669272  0.004427480628264629 0.02307915542835876 0.02786205189861083  0.004239045886583555 0.02311450821392138 0.1975325856758319  0.004860451390809135 0.0229918683946647 0.1025185492260169  0.02309408726744325 0.004348923232676713 0.07256942101527601  0.02310279188926682 0.004302441971860534 0.08751472093569254  0.02310106382978955 0.004311710789464963 0.05249999999988036  0.02310111516566284 0.00431
[...]
<PointData  Scalars="f_70-0"> 
<DataArray  type="Float64"  Name="f_70-0"  format="ascii">9.2041127927841415e-01  9.2041420729148127e-01  9.2047067053363163e-01  9.2047085281680174e-01  9.2297946689060228e-01  9.2192947843113704e-01  9.2246438646615125e-01  9.2191135033942617e-01  9.2278649239144084e-01  9.2205486967416894e-01  9.1970015090999802e-01  9.2302278998893006e-01  9.2185075527216276e-01  9.2251524586093070e-01  9.2189273115718373e-01  9.2290991488590290e-01  9.2172301155513825e-01  9.1966470863256589e-01  9.2297479652086778e-01  9.2195442021338836e-01  9.2230935184715324e-01  9.2189978639202430e-01  9.2276864798579761e-01  9.2205421288137612e-01  9.1973409230450842e-01  9.2317267969000238e-01  9.2184883753033076e-01  9.2222405533623675e-01  9.2199795481549485e-01  9.2232356778933522e-01  9.2201892457121470e-01  9.1971460574930330e-01  9.1998093618021703e-01  9.1996422756085838e-01  9.1999388540836080e-01  9.2000524513360760e-01  9.2030009042077576e-01  9.2001999267467915e-01  9.2034000371868085e-01  9.1993629169123214e-01  9.2008430256066165e-01  9.2032652792661163e-01  9.2017739193508163e-01  9.2020400083448417e-01  9.2013827923967739e-01  9.2001728029839280e-01  9.2018618870343671e-01  9.2010038539968242e-01  9.2054161036313142e-01  9.1986319421950802e-01  9.1984496048198239e-01  9.1981777783745677e-01  9.1979679787118540e-01  9.1983168543085336e-01  9.1981817762370133e-01  9.1981343342920341e-01  9.1982141379038829e-01  9.1980734580585410e-01  9.1981930749169116e-01  9.1980225883798616e-01  9.1983441829041879e-01  9.1982663865345604e-01  9.1980220447222028e-01  9.1981449293704498e-01  9.1979485210080814e-01  9.1978859094883236e-01  9.1979963152278754e-01  9.1979029385557109e-01  9.1982533271260458e-01  9.1985098179406100e-01  9.1976531273438544e-01  9.1982513654816211e-01  9.1975675987496208e-01  9.1982442155980593e-01  9.1983495000410853e-01  9.1984853152689461e-01  9.1981615819244911e-01  9.1984153104841071e-01  9.1989058444245475e-01  9.1981936113963692e-01  9.1981880271944227e-01  9.1978453919790015e-01  9.1981238015577882e-01  9.1978448861725304e-01  9.1981280887499084e-01  9.1984531549412951e-01  9.1985821874556106e-01  9.1981112670656817e-01  9.1985768781345234e-01  9.1981635531254557e-01  9.1987056872969009e-01  9.1987718462340984e-01  9.1984702206145108e-01  9.1978827051100576e-01  9.1979187730121958e-01  9.1978429751665569e-01  9.1993416688866880e-01  9.1988410346674820e-01  9.1994153364595566e-01  9.2038472306276498e-01  9.2017346768190456e-01  9.2008120935889626e-01  9.2015857692816627e-01  9.2048778566385192e-01  9.2020244595068346e-01  9.2027598541397748e-01  9.2019259401432296e-01  9.2041651408650282e-01  9.2047232132486545e-01  9.2027961701399774e-01  9.1982766714345954e-01  9.2037487280992170e-01  9.2016628142269952e-01  9.1976650597438336e-01  9.1978467752359649e-01  9.1986458884778344e-01  9.2037144795428905e-01  9.1994911177486460e-01  9.1983331300713389e-01  9.2064926625101251e-01  9.1987054978288951e-01  9.1977718642011808e-01  9.1980536065117580e-01  2.5393841637606798e+01  2.5393950385769010e+01  2.5392520599680346e+01  2.5392975812077186e+01  2.5392403113118334e+01  2.5392327920585370e+01  2.5392101061066825e+01  2.5392452192228014e+01  2.5393781891005393e+01  1.5274192588074975e+00  2.1343423562681227e+00  2.7420150077304037e+00  3.3477379996936159e+00  3.9541558179626817e+00  4.5582676214410238e+00  5.1616167432067250e+00  5.7626689965306586e+00  6.3620676451135276e+00  6.9604433547610070e+00  7.5562489373053543e+00  8.1494840882013335e+00  8.7393383880328770e+00  9.3282129670423366e+00  9.9147913523625473e+00  1.0497626897633578e+01  1.1077527928527445e+01  1.1653979943655912e+01  1.2227193131623579e+01  1.2797154626687924e+01  1.3363679202882059e+01  1.3925177746425357e+01  1.4481969344252905e+01  1.5034603394958735e+01  1.5583582740322509e+01  1.6127671280514800e+01  1.6667349278147217e+01  1.7201962678752615e+01  1.7731480933523777e+01  1.8255640388417490e+01  1.8774231136743825e+01  1.9287461268539793e+01  1.9794979909322496e+01  2.0296682358802403e+01  2.0792555265982656e+01  2.1282418374963310e+01  2.1766388890439909e+01  2.2242503317779622e+01  2.2714080830775320e+01  2.3177320735434851e+01  2.3634799282703369e+01  2.4085077132975300e+01  2.4528334154964003e+01  2.4964282266018810e+01  1.5276090951200008e+00  2.1343614411154848e+00  2.7419787844943984e+00  3.3483822654287505e+00  3.9541119171795516e+00  4.5583574957156356e+00  5.1610521800852807e+00  5.7623976163969957e+00  6.3616130195527054e+00  6.9597972762392981e+00  7.5549773047204969e+00  8.1493868235581317e+00  8.7404318940876937e+00  9.3292330065084297e+00  9.9146961076796032e+00  1.0497695786831025e+01  1.1077112014403697e+01  1.1653790133851366e+01  1.2226903033713366e+01  1.2796693173183231e+01  1.3362347671694938e+01  1.3924402224176536e+01  1.4482532885306092e+01  1.5036511637139082e+01  1.5585530666236215e+01  1.6128546862147335e+01  1.6667593334746488e+01  1.7201873511677874e+01  1.7731564214848682e+01  1.8255560535015288e+01  1.8773948215744014e+01  1.9287181797634108e+01  1.9794769064958366e+01  2.0296555804773387e+01  2.0792567451660261e+01  2.1282644773615367e+01  2.1766637918839354e+01  2.2242586297078102e+01  2.2713678377169703e+01  2.3177588476119979e+01  2.3634622671025070e+01  2.4084770486402057e+01  2.4528827836047505e+01  2.4964697434478897e+01  2.3862133798742867e+01  3.0571960692900815e+00  4.3002180194282911e+00  2.2950287706839617e+01  1.3081881655068820e+01  9.6302613611277330e+00  1.1368074683630377e+01  7.2580326176439067e+00  1.4758818774100547e+01  1.7997466599904584e+01  2.1525204031187560e+01  1.9542003774918708e+01  1.6398269480981227e+01  5.4670070539986648e+00  8.4469750530260796e+00  1.3207644818176603e+00  2.5017671780393425e+01  2.2481132531263523e+01  6.0669491362227879e+00  1.0789552988618324e+01  1.5366652440412699e+01  2.1038593426664452e+01  2.0046866640918505e+01  1.3080504171062719e+01  1.7993670251041060e+01  4.2641585193252789e+00  3.0450412255254968e+00  2.3860908505472072e+01  7.2579038050114777e+00  1.9034395486617516e+01  1.6939208067573500e+01  1.4205906097532111e+01  8.4449630066494201e+00  9.6240194569492648e+00  1.1942803586866322e+01  2.5020229063385887e+01  1.3543753530352891e+00  2.4712418603160323e+01  1.8794070081844172e+00  1.9323386691807576e+00  2.4722398721599870e+01  2.4299042012425193e+01  2.4085879697848736e+01  2.3640941342952580e+01  2.3865893660323735e+01  2.3418422931607203e+01  2.3645638004356357e+01  2.3194344126252869e+01  2.3415337727422411e+01  2.3871920452940522e+01  2.2967060090904880e+01  2.2733277882301689e+01  2.2504925407764993e+01  2.2265763962123341e+01  2.2038370242908048e+01  2.1790886438592597e+01  2.1561713727015295e+01  2.1308412382339704e+01  2.1065903181242430e+01  2.0818455770055753e+01  2.0570844277382147e+01  2.0323180969978587e+01  2.0074910780519339e+01  1.9821747805418227e+01  1.9572865882049914e+01  1.9314661196489997e+01  1.9056412822934679e+01  1.8801520939199399e+01  1.8544634330461655e+01  1.8282975372481044e+01  1.8017790502568150e+01  1.7759330467005423e+01  1.7496348257072018e+01  1.7230391148800265e+01  1.6959211615836242e+01  1.6696190440125616e+01  1.6428522668648519e+01  1.6157647754078102e+01  1.5883145572310674e+01  1.5613835692893188e+01  1.5345002914360059e+01  1.5062810784996959e+01  1.4798314067088546e+01  1.4507904839085306e+01  1.4238372614462747e+01  1.3950777037853060e+01  1.3676562039318163e+01  1.3391090999867959e+01  1.3113419556343565e+01  1.2822925989566096e+01  1.2545096551149509e+01  1.2253748583781299e+01  1.1974402697259388e+01  1.1684971439276524e+01  1.1399223336424587e+01  1.1106411514783092e+01  1.0822203649671424e+01  1.0527553705871224e+01  1.0240178626250028e+01  9.9456310309155924e+00  9.6570225925913320e+00  9.3603152687689022e+00  9.0692767482493188e+00  8.7722418446463255e+00  8.4806345452521477e+00  8.1813510611325704e+00  7.8873084792959078e+00  7.5878787597927211e+00  7.2934172309003795e+00  6.9924517033002012e+00  6.6965986765766461e+00  6.3949060156525146e+00  6.0996037416568543e+00  5.7954428166361209e+00  5.4972046431750767e+00  5.1944021680992343e+00  4.9008218309919238e+00  4.5923955812112540e+00  4.3039794260903976e+00  3.9901411806169160e+00  3.6915536451335091e+00  3.3900853076985960e+00  3.0920127998901648e+00  2.7929230270544201e+00  6.0960450183350803e+00  3.6916279547959387e+00  1.0235363637549305e+01  1.1948187624284886e+01  4.8905807732906696e+00  1.3651271960272414e+01  1.5324747105470886e+01  2.2271361054730875e+01  7.8821554823640261e+00  1.6962045432474056e+01  9.0636690664104123e+00  1.8541122945356406e+01  2.0822617294903150e+01  2.0067447385288666e+01  2.1545191356807980e+01  2.4970686825881181e+00  1.6163826271981264e+01  5.2168487571155904e+00  2.4274661764940191e+01  2.3188751342575411e+01  2.2498097130433912e+01  2.2525219086465560e+00  2.4886331023536794e+00  2.3188866317052703e+01  1.9294643769528353e+01  1.8269963845524742e+01  1.7216226560784879e+01  1.4496428501690151e+01  1.3397189827136712e+01  1.2262296954885825e+01  1.1112926134839766e+01  9.9508226730080338e+00  8.7769879557114194e+00  7.5941315514982453e+00  3.3817630782294308e+00  6.4002561654937766e+00  1.9474977043010933e+00  2.2417510277443968e+00  2.7779613193798092e+00  2.4934998246966575e+00  3.3962456079996390e+00  2.4293953645157323e+01  2.4519812074465825e+01  2.4909838194200631e+01  2.4737576729425548e+01  2.4314244887776169e+01  2.4566667420980679e+01  2.4823431461738650e+01  2.4403133319297567e+00  2.1361359064378203e+00  1.5989355576838284e+00  1.7895893259302302e+00  2.7606336576920447e+00  3.7073127329582443e+00  4.0538979224419069e+00  2.4454764970787913e+01  2.4020091737068025e+01  2.3406039435399425e+01  2.3634872696122624e+01  4.2905535871082057e+00  4.5831393541660610e+00  5.1863568610026176e+00  4.8627247662065276e+00  5.8025620591968003e+00  5.4930732916846017e+00  6.3954964778570007e+00  3.9980035708930028e+00  2.2478793583265297e+01  2.2721269340073810e+01  2.2006538239920538e+01  2.1588089810238394e+01  4.8592275844468951e+00  5.4704395508380701e+00  2.2006711838099807e+01  2.2247205876286024e+01  2.1526034184188617e+01  2.1288529254479325e+01  2.0799354762157190e+01  2.2951222630783676e+01  7.2895660414863190e+00  7.5823872294224497e+00  8.1721060483705976e+00  6.6702760597414983e+00  5.7858530822645990e+00  6.9923119207644149e+00  7.8847574070703326e+00  8.1873826053893080e+00  9.0470821155154244e+00  9.3616688323417101e+00  1.0218427695361713e+01  1.0529879679002406e+01  1.1378100662427936e+01  1.1685719443312992e+01  1.2524270117550007e+01  1.2828292527194723e+01  1.3655898046405033e+01  1.3950832478820336e+01  1.4766483083462520e+01  1.5149964006265012e+01  1.5701237575518382e+01  8.4740852293328679e+00  8.7667298053157019e+00  9.3380357641330818e+00  9.0373965282280349e+00  9.9432945457315540e+00  9.6489247818194563e+00  1.0514284777765063e+01  1.4203802899162437e+01  1.4482823648289552e+01  1.5039406463546452e+01  1.3926829356465635e+01  1.4774261823865794e+01  1.5594003812840644e+01  1.5874167090079109e+01  1.3644513011757915e+01  1.3363804968999732e+01  1.2798368725042563e+01  1.3090570841675113e+01  1.5309731279949634e+01  1.5856271577467927e+01  1.8515196611288165e+01  1.8256366286878890e+01  1.7733926738461506e+01  1.9031417481936558e+01  1.9287889841587276e+01  1.9799109609396154e+01  1.7466185205992932e+01  1.7739175459195256e+01  2.1037848378351715e+01  2.0548125706018727e+01  2.0281907949705008e+01  1.9828036956390907e+01  1.9543642626782898e+01  1.7467435960044792e+01  1.7206017339497052e+01  1.6935764103012627e+01  1.6675059682872188e+01  1.8514135857626425e+01  1.8780302334659826e+01  1.6435118765837736e+01  1.6670727227515258e+01  2.0545747199356917e+01  2.0047058915224074e+01  1.2512801951993458e+01  1.2229854671012754e+01  1.1941924868254617e+01  1.1666289120102338e+01  1.1392080291821125e+01  1.0793793959223928e+01  7.8570319609430692e+00  6.6688108026507997e+00  1.7493197956969741e+01  1.8019781067655206e+01  2.4084924480448962e+01  1.6420925327509149e+01  1.8775712747355978e+01  2.3410481155392393e+01  6.6935452420927275e+00  1.9056349747394062e+01  2.2962020095083840e+01  1.9563167420209993e+01  3.0844442771516083e+00  1.0807516754859270e+01  2.0304315360543431e+01  1.6133248813360691e+01  6.9847459159142495e+00  2.0568443277753236e+01  3.6636444102295362e+00  1.3838862980784261e+00  2.1057796942261959e+01  2.2721097611594079e+01  2.1772348664512229e+01  6.0664146957117495e+00  2.2025420151842603e+01  1.0217213073873761e+01  1.2536312812613202e+01  1.4219889396094958e+01  1.1109595304418225e+01  4.6285955976345630e+00  2.5093791612521876e+01  1.3863746670315762e+00  1.5858124873599303e+01  2.4660964910429591e+01  2.1210729570357739e+01  2.5085323861632926e+01  1.3398651445327581e+00  2.4460885775714562e+01  1.5652801216843077e+01  2.5070313419083245e+01  1.3784684964489915e+00  2.3863065682040865e+01  2.1215726416154482e+01  2.5151796855839287e+01  1.7483077908418672e+00  1.7503666214406284e+00  2.1908217884497596e+01  2.3179161083642949e+01  2.4269278712406770e+01  2.2736345664377428e+01  2.5101593750157736e+01  1.3907379862968110e+00  1.6099132811319663e+01  2.0794302765048752e+01  2.0326882529164259e+01  1.9856968852112537e+01  1.9287180862437904e+01  1.8804127283599009e+01  1.8255561505699720e+01  1.7762253165016702e+01  2.4790713318331779e+01  1.7201947413068552e+01  2.2006818368815900e+01  1.6699478002864481e+01  2.3541728684489083e+01  2.2326428021104373e+01  2.5393967598150176e+01  2.5392811400580953e+01  2.5393140742301924e+01  2.5393187876085708e+01  2.5393250819883878e+01  2.5392730551070024e+01  2.5393007119484881e+01  2.5394204542192522e+01  1.5276548650988229e+00  2.1345503239974306e+00  2.7419447164482609e+00  3.3484315739385253e+00  3.9540827356898935e+00  4.5581907848956273e+00  5.1609342387896806e+00  5.7625068044274652e+00  6.3617869105912366e+00  6.9598356586583332e+00  7.5554828114205099e+00  8.1493988988568535e+00  8.7403522959572175e+00  9.3293267093698322e+00  9.9148573067229862e+00  1.0497768608689956e+01  1.1077329018413357e+01  1.1653889385395146e+01  1.2226929187598380e+01  1.2796507601036994e+01  1.3362285565204338e+01  1.3924316008117886e+01  1.4482186040823867e+01  1.5036253412058791e+01  1.5585146187378704e+01  1.6128345676172607e+01  1.6667532660266797e+01  1.7201938946223468e+01  1.7731545143596332e+01  1.8255382254058681e+01  1.8773945880887158e+01  1.9287322716801910e+01  1.9794465677316012e+01  2.0296630782530798e+01  2.0792884560811647e+01  2.1282590354253362e+01  2.1766408210659790e+01  2.2242893606856416e+01  2.2713832306294798e+01  2.3177487264608178e+01  2.3635092011399959e+01  2.4085369812720497e+01  2.4528628360294654e+01  2.4964542319806419e+01  2.3861647792574271e+01  3.0546267741736686e+00  4.3001425400792854e+00  2.2949763071986393e+01  1.3081924252838629e+01  9.6305472404449617e+00  1.1367772705943294e+01  7.2575279695897512e+00  1.4759368615183734e+01  1.7997392607918592e+01  2.1525165755098875e+01  1.9541330147706240e+01  1.6398619619565455e+01  5.4668183758408952e+00  8.4469306814339316e+00  1.3207997942098686e+00  2.5017774318853625e+01  2.2480855367291827e+01  6.0668737499301635e+00  1.0789782984296155e+01  1.5366775478800552e+01  2.1038397883509237e+01  2.0046498774219632e+01  1.3080131299975056e+01  1.7993956239267966e+01  3.0451350027549591e+00  2.3860807394141595e+01  4.2640982835360877e+00  1.6939284210856776e+01  1.4206251533566885e+01  8.4452899485233619e+00  1.9034101429639083e+01  9.6241023528683431e+00  1.1943019753614331e+01  7.2580396885474414e+00  2.5020647354513791e+01  1.3543350510867762e+00  2.4712406503180830e+01  1.8792999219287640e+00  1.9291466164569320e+00  2.4722220362172401e+01  2.4298544373769371e+01  2.4085666857844945e+01  2.3641289834765136e+01  2.3865987826892638e+01  2.3418396908418817e+01  2.3645759619268045e+01  2.3194323915164517e+01  2.3415243976682842e+01  2.3872314439198639e+01  2.2966553539167247e+01  2.2733991647236628e+01  2.2505034910768536e+01  2.2265744729005526e+01  2.2038878388397571e+01  2.1790884326171973e+01  2.1561563224655277e+01  2.1308331406140674e+01  2.1065825528905155e+01  2.0818370042735172e+01  2.0570377973572811e+01  2.0322950996628180e+01  2.0074765660329376e+01  1.9821981008704704e+01  1.9572929151113868e+01  1.9314676282561738e+01  1.9056787061830281e+01  1.8801570109969333e+01  1.8544612768621853e+01  1.8283008460497303e+01  1.8017703140005850e+01  1.7758949174872974e+01  1.7496415198131377e+01  1.7230526717386837e+01  1.6959371122503509e+01  1.6696083262568735e+01  1.6428577978992003e+01  1.6158252755607279e+01  1.5883504060175811e+01  1.5613632429366467e+01  1.5344268561063414e+01  1.5063013515225125e+01  1.4798447184675299e+01  1.4507769255087105e+01  1.4238231404829301e+01  1.3950843034891419e+01  1.3676282025364777e+01  1.3390991976912801e+01  1.3113468301698120e+01  1.2823006611815192e+01  1.2544712649624762e+01  1.2253628376425395e+01  1.1974300884044139e+01  1.1684770716648865e+01  1.1399428859749499e+01  1.1106420476186843e+01  1.0822303777820892e+01  1.0527622724673719e+01  1.0240121351172281e+01  9.9455064184403490e+00  9.6569087055394682e+00  9.3603666996563533e+00  9.0691458245102030e+00  8.7722235327838778e+00  8.4805015607663403e+00  8.1812252856811316e+00  7.8871497706797182e+00  7.5879361632239073e+00  7.2934653077027587e+00  6.9925232484313291e+00  6.6966251516156090e+00  6.3948403354798087e+00  6.0997344652556835e+00  5.7952921048022290e+00  5.4969631300580550e+00  5.1943062231936707e+00  4.9007116001768720e+00  4.5924229128915295e+00  4.3039362534083514e+00  3.9900587594168528e+00  3.6916365911929501e+00  3.3901201710604836e+00  3.0920398135149867e+00  2.7930022941122346e+00  6.0959419398627901e+00  3.6916246564496520e+00  1.0235440243117354e+01  1.1947993294491130e+01  4.8904521541737145e+00  1.3651194918102224e+01  1.5324739567519687e+01  2.2271732559614183e+01  7.8821241967316569e+00  1.6961862643774754e+01  9.0638199272655111e+00  1.8540188448218149e+01  2.0822423110318248e+01  2.0067317029040868e+01  2.1545292415247289e+01  2.4974182781655458e+00  1.6163905011820031e+01  5.2170508961172759e+00  2.4274857210144521e+01  2.3188651402353404e+01  2.2497914321871431e+01  2.2526577331643511e+00  2.4885370588103544e+00  2.3188905380832995e+01  1.9294679751520007e+01  1.8269399548183539e+01  1.7216788575807183e+01  1.4496255539658332e+01  1.3397387295383245e+01  1.2262351222979458e+01  1.1113088400887937e+01  9.9510158444498380e+00  8.7770564683695262e+00  7.5943438103944070e+00  3.3816917548095784e+00  6.4002857254985317e+00  1.9473271961238672e+00  2.2413601028637462e+00  2.7780797849229528e+00  2.4921011044396622e+00  3.3962423127011103e+00  2.4294033734490707e+01  2.4519772342501213e+01  2.4910123244116459e+01  2.4737997973217656e+01  2.4314035397012752e+01  2.4567129160039201e+01  2.4824049107624141e+01  2.4400263635058814e+00  2.1363157566175626e+00  1.5989644864782711e+00  1.7891705272524421e+00  2.7606294299995375e+00  3.7071242971020224e+00  4.0538032851430543e+00  2.4455104573339970e+01  2.4020164999948623e+01  2.3405952689175713e+01  2.3634719502914280e+01  4.2906600939875794e+00  4.5830325479998040e+00  5.1861864862199427e+00  4.8624593806882110e+00  5.8024442680067727e+00  5.4930063418754056e+00  6.3953478256140786e+00  3.9980889003670086e+00  2.2479607782216256e+01  2.2721222409313892e+01  2.2006679553444741e+01  2.1587998709630082e+01  4.8592569478188592e+00  5.4705694598816068e+00  2.2006513475097258e+01  2.2246755719244412e+01  2.1526479322866166e+01  2.1288610642572706e+01  2.0799330668686064e+01  2.2950635489182403e+01  7.2895357530927996e+00  7.5822268024774671e+00  8.1720393838064407e+00  6.6701995334058273e+00  5.7857762648798809e+00  6.9922627084907987e+00  7.8853931987048407e+00  8.1870243357106034e+00  9.0470661442438214e+00  9.3618111587987833e+00  1.0218705642378501e+01  1.0530138821428213e+01  1.1378064242913730e+01  1.1685718795936316e+01  1.2524340897989219e+01  1.2828129122239