<?xml version="1.0"?>
<VTKFile type="UnstructuredGrid"  version="0.1"  >
<UnstructuredGrid>
<Piece  NumberOfPoints="14054" NumberOfCells="63195">
<Points>
<DataArray  type="Float64"  NumberOfComponents="3"  format="ascii">0.0235 0 0  1.43895998899814e-18 0.0235 0  -0.0235 2.87791997799628e-18 0  -4.31687996699442e-18 -0.0235 0  0.0235 0 0.225  1.43895998899814e-18 0.0235 0.225  -0.0235 2.87791997799628e-18 0.225  -4.31687996699442e-18 -0.0235 0.225  0.0235 0 0.275  1.43895998899814e-18 0.0235 0.275  -0.0235 2.87791997799628e-18 0.275  -4.31687996699442e-18 -0.0235 0.275  0.0235 0 1  1.43895998899814e-18 0.0235 1  -0.0235 2.87791997799628e-18 1  -4.31687996699442e-18 -0.0235 1  0.02304845408704707 0.004584622579589641 0  0.02171116900374584 0.008993060685372123 0  0.01953953586688963 0.01305590050921551 0  0.01661700932025773 0.01661700939551001 0  0.01305590044343904 0.01953953591084006 0  0.008993060633920176 0.02171116902505794 0  0.004584622553450596 0.02304845409224645 0  -0.004584622579589639 0.02304845408704707 0  -0.008993060685372121 0.02171116900374584 0  -0.0130559005092155 0.01953953586688963 0  -0.01661700939551001 0.01661700932025773 0  -0.01953953591084006 0.01305590044343904 0  -0.02171116902505794 0.008993060633920177 0  -0.02304845409224645 0.004584622553450598 0  -0.02304845408704707 -0.004584622579589638 0  -0.02171116900374584 -0.008993060685372119 0  -0.01953953586688963 -0.0130559005092155 0  -0.01661700932025773 -0.01661700939551001 0  -0.01305590044343904 -0.01953953591084006 0  -0.008993060633920179 -0.02171116902505794 0  -0.004584622553450599 -0.02304845409224645 0  0.004584622578019228 -0.02304845408735944 0  0.008993060682702768 -0.02171116900485152 0  0.01305590050549285 -0.01953953586937703 0  0.01661700939070213 -0.0166170093250656 0  0.01953953590741696 -0.01305590044856207 0  0.0217111690237741 -0.008993060637019643 0  0.02304845409188477 -0.004584622555268903 0  0.02304845408704707 0.004584622579589641 0.225  0.02171116900374584 0.008993060685372123 0.225  0.01953953586688963 0.01305590050921551 0.225  0.01661700932025773 0.01661700939551001 0.225  0.01305590044343904 0.01953953591084006 0.225  0.008993060633920176 0.02171116902505794 0.225  0.004584622553450596 0.02304845409224645 0.225  -0.004584622579589639 0.02304845408704707 0.225  -0.008993060685372121 0.02171116900374584 0.225  -0.0130559005092155 0.01953953586688963 0.225  -0.01661700939551001 0.01661700932025773 0.225  -0.01953953591084006 0.01305590044343904 0.225  -0.02171116902505794 0.008993060633920177 0.225  -0.02304845409224645 0.004584622553450598 0.225  -0.02304845408704707 -0.004584622579589638 0.225  -0.02171116900374584 -0.008993060685372119 0.225  -0.01953953586688963 -0.0130559005092155 0.225  -0.01661700932025773 -0.01661700939551001 0.225  -0.01305590044343904 -0.01953953591084006 0.225  -0.008993060633920179 -0.02171116902505794 0.225  -0.004584622553450599 -0.02304845409224645 0.225  0.004584622578019228 -0.02304845408735944 0.225  0.008993060682702768 -0.02171116900485152 0.225  0.01305590050549285 -0.01953953586937703 0.225  0.01661700939070213 -0.0166170093250656 0.225  0.01953953590741696 -0.01305590044856207 0.225  0.0217111690237741 -0.008993060637019643 0.225  0.02304845409188477 -0.004584622555268903 0.225  0.0235 0 0.004999999999990492  0.0235 0 0.00999999999998038  0.0235 0 0.01499999999997059  0.0235 0 0.01999999999996362  0.0235 0 0.02499999999995545  0.0235 0 0.02999999999994574  0.0235 0 0.03499999999993121  0.0235 0 0.03999999999991668  0.0235 0 0.04499999999990215  0.0235 0 0.04999999999988763  0.0235 0 0.05499999999987309  0.0235 0 0.05999999999985856  0.0235 0 0.06499999999984404  0.0235 0 0.06999999999982952  0.0235 0 0.07499999999981498  0.0235 0 0.07999999999980045  0.0235 0 0.08499999999978593  0.0235 0 0.08999999999977139  0.0235 0 0.09499999999975686  0.0235 0 0.09999999999974234  0.0235 0 0.1049999999997278  0.0235 0 0.1099999999997133  0.0235 0 0.1149999999997088  0.0235 0 0.1199999999997243  0.0235 0 0.1249999999997356  0.0235 0 0.1299999999997495  0.0235 0 0.1349999999997615  0.0235 0 0.1399999999997767  0.0235 0 0.1449999999997875  0.0235 0 0.1499999999998038  0.0235 0 0.1549999999998147  0.0235 0 0.1599999999998309  0.0235 0 0.1649999999998419  0.0235 0 0.1699999999998544  0.0235 0 0.1749999999998692  0.0235 0 0.1799999999998801  0.0235 0 0.1849999999998964  0.0235 0 0.1899999999999074  0.0235 0 0.1949999999999237  0.0235 0 0.1999999999999346  0.0235 0 0.2049999999999476  0.0235 0 0.2099999999999618  0.0235 0 0.2149999999999727  0.0235 0 0.2199999999999891  1.43895998899814e-18 0.0235 0.004999999999990492  1.43895998899814e-18 0.0235 0.00999999999998038  1.43895998899814e-18 0.0235 0.01499999999997059  1.43895998899814e-18 0.0235 0.01999999999996362  1.43895998899814e-18 0.0235 0.02499999999995545  1.43895998899814e-18 0.0235 0.02999999999994574  1.43895998899814e-18 0.0235 0.03499999999993121  1.43895998899814e-18 0.0235 0.03999999999991668  1.43895998899814e-18 0.0235 0.04499999999990215  1.43895998899814e-18 0.0235 0.04999999999988763  1.43895998899814e-18 0.0235 0.05499999999987309  1.43895998899814e-18 0.0235 0.05999999999985856  1.43895998899814e-18 0.0235 0.06499999999984404  1.43895998899814e-18 0.0235 0.06999999999982952  1.43895998899814e-18 0.0235 0.07499999999981498  1.43895998899814e-18 0.0235 0.07999999999980045  1.43895998899814e-18 0.0235 0.08499999999978593  1.43895998899814e-18 0.0235 0.08999999999977139  1.43895998899814e-18 0.0235 0.09499999999975686  1.43895998899814e-18 0.0235 0.09999999999974234  1.43895998899814e-18 0.0235 0.1049999999997278  1.43895998899814e-18 0.0235 0.1099999999997133  1.43895998899814e-18 0.0235 0.1149999999997088  1.43895998899814e-18 0.0235 0.1199999999997243  1.43895998899814e-18 0.0235 0.1249999999997356  1.43895998899814e-18 0.0235 0.1299999999997495  1.43895998899814e-18 0.0235 0.1349999999997615  1.43895998899814e-18 0.0235 0.1399999999997767  1.43895998899814e-18 0.0235 0.1449999999997875  1.43895998899814e-18 0.0235 0.1499999999998038  1.43895998899814e-18 0.0235 0.1549999999998147  1.43895998899814e-18 0.0235 0.1599999999998309  1.43895998899814e-18 0.0235 0.1649999999998419  1.43895998899814e-18 0.0235 0.1699999999998544  1.43895998899814e-18 0.0235 0.1749999999998692  1.43895998899814e-18 0.0235 0.1799999999998801  1.43895998899814e-18 0.0235 0.1849999999998964  1.43895998899814e-18 0.0235 0.1899999999999074  1.43895998899814e-18 0.0235 0.1949999999999237  1.43895998899814e-18 0.0235 0.1999999999999346  1.43895998899814e-18 0.0235 0.2049999999999476  1.43895998899814e-18 0.0235 0.2099999999999618  1.43895998899814e-18 0.0235 0.2149999999999727  1.43895998899814e-18 0.0235 0.2199999999999891  -0.0235 2.87791997799628e-18 0.004999999999990492  -0.0235 2.87791997799628e-18 0.00999999999998038  -0.0235 2.87791997799628e-18 0.01499999999997059  -0.0235 2.87791997799628e-18 0.01999999999996362  -0.0235 2.87791997799628e-18 0.02499999999995545  -0.0235 2.87791997799628e-18 0.02999999999994574  -0.0235 2.87791997799628e-18 0.03499999999993121  -0.0235 2.87791997799628e-18 0.03999999999991668  -0.0235 2.87791997799628e-18 0.04499999999990215  -0.0235 2.87791997799628e-18 0.04999999999988763  -0.0235 2.87791997799628e-18 0.05499999999987309  -0.0235 2.87791997799628e-18 0.05999999999985856  -0.0235 2.87791997799628e-18 0.06499999999984404  -0.0235 2.87791997799628e-18 0.06999999999982952  -0.0235 2.87791997799628e-18 0.07499999999981498  -0.0235 2.87791997799628e-18 0.07999999999980045  -0.0235 2.87791997799628e-18 0.08499999999978593  -0.0235 2.87791997799628e-18 0.08999999999977139  -0.0235 2.87791997799628e-18 0.09499999999975686  -0.0235 2.87791997799628e-18 0.09999999999974234  -0.0235 2.87791997799628e-18 0.1049999999997278  -0.0235 2.87791997799628e-18 0.1099999999997133  -0.0235 2.87791997799628e-18 0.1149999999997088  -0.0235 2.87791997799628e-18 0.1199999999997243  -0.0235 2.87791997799628e-18 0.1249999999997356  -0.0235 2.87791997799628e-18 0.1299999999997495  -0.0235 2.87791997799628e-18 0.1349999999997615  -0.0235 2.87791997799628e-18 0.1399999999997767  -0.0235 2.87791997799628e-18 0.1449999999997875  -0.0235 2.87791997799628e-18 0.1499999999998038  -0.0235 2.87791997799628e-18 0.1549999999998147  -0.0235 2.87791997799628e-18 0.1599999999998309  -0.0235 2.87791997799628e-18 0.1649999999998419  -0.0235 2.87791997799628e-18 0.1699999999998544  -0.0235 2.87791997799628e-18 0.1749999999998692  -0.0235 2.87791997799628e-18 0.1799999999998801  -0.0235 2.87791997799628e-18 0.1849999999998964  -0.0235 2.87791997799628e-18 0.1899999999999074  -0.0235 2.87791997799628e-18 0.1949999999999237  -0.0235 2.87791997799628e-18 0.1999999999999346  -0.0235 2.87791997799628e-18 0.2049999999999476  -0.0235 2.87791997799628e-18 0.2099999999999618  -0.0235 2.87791997799628e-18 0.2149999999999727  -0.0235 2.87791997799628e-18 0.2199999999999891  -4.31687996699442e-18 -0.0235 0.004999999999990492  -4.31687996699442e-18 -0.0235 0.00999999999998038  -4.31687996699442e-18 -0.0235 0.01499999999997059  -4.31687996699442e-18 -0.0235 0.01999999999996362  -4.31687996699442e-18 -0.0235 0.02499999999995545  -4.31687996699442e-18 -0.0235 0.02999999999994574  -4.31687996699442e-18 -0.0235 0.03499999999993121  -4.31687996699442e-18 -0.0235 0.03999999999991668  -4.31687996699442e-18 -0.0235 0.04499999999990215  -4.31687996699442e-18 -0.0235 0.04999999999988763  -4.31687996699442e-18 -0.0235 0.05499999999987309  -4.31687996699442e-18 -0.0235 0.05999999999985856  -4.31687996699442e-18 -0.0235 0.06499999999984404  -4.31687996699442e-18 -0.0235 0.06999999999982952  -4.31687996699442e-18 -0.0235 0.07499999999981498  -4.31687996699442e-18 -0.0235 0.07999999999980045  -4.31687996699442e-18 -0.0235 0.08499999999978593  -4.31687996699442e-18 -0.0235 0.08999999999977139  -4.31687996699442e-18 -0.0235 0.09499999999975686  -4.31687996699442e-18 -0.0235 0.09999999999974234  -4.31687996699442e-18 -0.0235 0.1049999999997278  -4.31687996699442e-18 -0.0235 0.1099
[...]
<PointData  Scalars="f_89"> 
<DataArray  type="Float64"  Name="f_89"  format="ascii">1.0060550249421030e+00  1.0059708809181103e+00  1.0060690299643593e+00  1.0060851077507793e+00  2.5395701884101129e+01  2.5396297531944924e+01  2.5396508402013644e+01  2.5396220578559333e+01  2.8680840082267402e+01  2.8679801696305628e+01  2.8679813735094459e+01  2.8680284873198151e+01  9.3966656868681264e-01  9.3965148239508878e-01  9.3965449388691202e-01  9.3963198944744442e-01  1.0084970947613803e+00  1.0073787785848971e+00  1.0078389625137287e+00  1.0073782867910834e+00  1.0081463678812261e+00  1.0075042207172731e+00  1.0053867743574278e+00  1.0084296361317289e+00  1.0073998231845682e+00  1.0079964415407530e+00  1.0074192156878363e+00  1.0083437694605337e+00  1.0076988390118602e+00  1.0053115100680450e+00  1.0084012905142021e+00  1.0074400689148393e+00  1.0077985714466131e+00  1.0074003906906925e+00  1.0082404602715074e+00  1.0070709358910519e+00  1.0054114912895142e+00  1.0085475961332859e+00  1.0074384131165153e+00  1.0077485230265606e+00  1.0074602868332041e+00  1.0082561279807067e+00  1.0074748685256594e+00  1.0053627927294717e+00  2.5394446821172945e+01  2.5394933332180621e+01  2.5394585540295303e+01  2.5394532071140802e+01  2.5394422885390124e+01  2.5394794044932624e+01  2.5396119937395909e+01  2.5395141215443637e+01  2.5395460918043447e+01  2.5395519775316171e+01  2.5395282204500585e+01  2.5395080592651858e+01  2.5395318728428666e+01  2.5396578991687065e+01  2.5395308795714215e+01  2.5395764270450904e+01  2.5395542978980238e+01  2.5395070398911159e+01  2.5394886404643120e+01  2.5395183012840793e+01  2.5396337190823942e+01  2.5394732037044246e+01  2.5394696520770285e+01  2.5394197300621844e+01  2.5394356119369057e+01  2.5394295386900527e+01  2.5394192280464381e+01  2.5395660176847645e+01  1.5772598211507749e+00  2.1676958554037342e+00  2.7662528896249743e+00  3.3665208453657143e+00  3.9684762574505403e+00  4.5697982086161684e+00  5.1711800846148632e+00  5.7702938161658190e+00  6.3683439664290127e+00  6.9657970156100202e+00  7.5608416021537970e+00  8.1531895691864715e+00  8.7423644190173224e+00  9.3310527942588291e+00  9.9169391184585418e+00  1.0499356787594326e+01  1.1079253931761974e+01  1.1655217421851470e+01  1.2228643086219501e+01  1.2798282166803160e+01  1.3364330906628668e+01  1.3926163682804772e+01  1.4482492321448710e+01  1.5035340532995431e+01  1.5584655912992696e+01  1.6128191438961757e+01  1.6668009460068429e+01  1.7202651610444725e+01  1.7731905002078708e+01  1.8255746354929634e+01  1.8774659813337863e+01  1.9287669252607913e+01  1.9795630423822203e+01  2.0297742035336153e+01  2.0793490510865556e+01  2.1283413055799279e+01  2.1767862432368702e+01  2.2243933389144377e+01  2.2715325455716950e+01  2.3178731413132940e+01  2.3636339754124645e+01  2.4086737425856146e+01  2.4530082589197900e+01  2.4966102391694708e+01  1.5772059749673160e+00  2.1679674965362996e+00  2.7663084992670530e+00  3.3668315837060518e+00  3.9686847151106353e+00  4.5698064270514562e+00  5.1704054842600407e+00  5.7699776317757374e+00  6.3681111277443785e+00  6.9652328754715054e+00  7.5596331726043742e+00  8.1532208891627285e+00  8.7434560557739012e+00  9.3318358813105444e+00  9.9167317983865590e+00  1.0499601123904217e+01  1.1078866276016697e+01  1.1655479757933954e+01  1.2228307852635840e+01  1.2797359731413813e+01  1.3363152667593249e+01  1.3925188290098403e+01  1.4483094739387168e+01  1.5036971294348669e+01  1.5586002419492733e+01  1.6129144805290181e+01  1.6668018312474594e+01  1.7202367671577235e+01  1.7731877454345849e+01  1.8255991304985251e+01  1.8774739752675032e+01  1.9288253947595756e+01  1.9795792097287261e+01  2.0297724435497503e+01  2.0793643017926332e+01  2.1283841103280611e+01  2.1767518739276877e+01  2.2243775280272747e+01  2.2715208958080432e+01  2.3179359618609819e+01  2.3636338793855337e+01  2.4086559564109379e+01  2.4530785888675414e+01  2.4966844855349848e+01  1.5773276261772371e+00  2.1679430625629186e+00  2.7662807742412352e+00  3.3669603519665738e+00  3.9685936554725241e+00  4.5698913989068641e+00  5.1705007349166356e+00  5.7699719054214880e+00  6.3681841733312705e+00  6.9648851245022971e+00  7.5598656557858757e+00  8.1534222127888736e+00  8.7433723745570333e+00  9.3320240947509348e+00  9.9170779514555942e+00  1.0499380067969174e+01  1.1079062077558108e+01  1.1655309439266162e+01  1.2228111990312280e+01  1.2797524922594532e+01  1.3363304118385120e+01  1.3925045309853427e+01  1.4482712119179308e+01  1.5036908332782170e+01  1.5585742797063398e+01  1.6128814563761253e+01  1.6668186545229155e+01  1.7202269655089726e+01  1.7731963808104773e+01  1.8256091523875778e+01  1.8774914981987962e+01  1.9287861878064128e+01  1.9795644633272502e+01  2.0297805689988248e+01  2.0793595365198065e+01  2.1283571217018743e+01  2.1767754877118598e+01  2.2244035454673956e+01  2.2715192347782502e+01  2.3179119839234819e+01  2.3636831417631758e+01  2.4087262881433197e+01  2.4530684074488445e+01  2.4966798346534421e+01  1.5773644692657094e+00  2.1679945369427625e+00  2.7663607347195724e+00  3.3667801936178492e+00  3.9686907294289262e+00  4.5698873425740016e+00  5.1704859714164533e+00  5.7702331232318667e+00  6.3683392775646253e+00  6.9653744016731922e+00  7.5601884648723718e+00  8.1532821701885396e+00  8.7439484019970166e+00  9.3321230800597981e+00  9.9182813436929624e+00  1.0501152478786418e+01  1.1079715447309622e+01  1.1654954118135368e+01  1.2226885727414608e+01  1.2795972298210145e+01  1.3364260765143712e+01  1.3925730780992643e+01  1.4481536828917358e+01  1.5035056695579181e+01  1.5583695639606830e+01  1.6129657658689030e+01  1.6668952958891825e+01  1.7202777622441705e+01  1.7732114993859248e+01  1.8256321589047769e+01  1.8775002325345223e+01  1.9288123387007246e+01  1.9795715782054877e+01  2.0297705749304104e+01  2.0792967851343072e+01  2.1283806714234913e+01  2.1767877634904000e+01  2.2243772419641903e+01  2.2715231355169127e+01  2.3179288618234089e+01  2.3636302448330706e+01  2.4087192105871740e+01  2.4530282644749366e+01  2.4966601942823594e+01  2.8680046615292767e+01  2.8679992000152396e+01  2.8679816995111931e+01  2.8679867339592498e+01  2.8679865591146918e+01  2.8679923501399632e+01  2.8679381879989410e+01  2.8679487631765390e+01  2.8679612426786377e+01  2.8679671972530485e+01  2.8679628020093137e+01  2.8679630637075061e+01  2.8679889339150670e+01  2.8679488965579058e+01  2.8679772079396823e+01  2.8680051382889634e+01  2.8679952059211871e+01  2.8680019856481682e+01  2.8679861004375166e+01  2.8680209933297036e+01  2.8679934077699929e+01  2.8680155829273531e+01  2.8680282349287669e+01  2.8680103317199556e+01  2.8680136148244525e+01  2.8679979863335618e+01  2.8680164149311558e+01  2.8680880589081994e+01  2.5814612983404636e+01  2.6228542112231633e+01  2.6631367429629861e+01  2.7025918919236172e+01  2.7407294600667594e+01  2.7680272066353464e+01  2.7939080811740403e+01  2.8191838206326398e+01  2.8439346925025212e+01  2.5815918629353739e+01  2.6230042593473922e+01  2.6635050760933716e+01  2.7035885718233043e+01  2.7409342836908973e+01  2.7677510893792668e+01  2.7936401606377697e+01  2.8190370458601635e+01  2.8438409954830636e+01  2.5816448326000963e+01  2.6229891457942131e+01  2.6635236813347465e+01  2.7033062682596132e+01  2.7410128758608380e+01  2.7678250595160794e+01  2.7937471662085439e+01  2.8191024152845834e+01  2.8438520445995309e+01  2.5815341775576773e+01  2.6228815671131663e+01  2.6634901206348420e+01  2.7029516522240026e+01  2.7406555670475747e+01  2.7676997699400346e+01  2.7937601429125255e+01  2.8191223458495163e+01  2.8438997011269876e+01  9.4133511576891671e-01  9.4050796434227668e-01  9.4110947844940007e-01  9.4083792647656228e-01  9.4141214045619559e-01  9.4077540029335327e-01  9.3910988581267052e-01  9.4146414862104411e-01  9.4055550821291012e-01  9.4097419827783979e-01  9.4086137944385440e-01  9.4144322901595645e-01  9.4101781229823123e-01  9.3918219313501128e-01  9.4131865724611796e-01  9.4058573831243919e-01  9.4105394272040810e-01  9.4094104138338941e-01  9.4136576233242231e-01  9.4112625124151783e-01  9.3916238369220162e-01  9.4147844421122406e-01  9.4054747355675816e-01  9.4103025909608562e-01  9.4098863079679540e-01  9.4140990609158781e-01  9.4111451395463985e-01  9.3914738870281866e-01  2.8915293799082807e+01  2.9144720791063630e+01  2.9368252814494713e+01  2.9585868647077675e+01  2.9797398428481920e+01  3.0002954796913052e+01  3.0202259222221439e+01  3.0395306567051751e+01  3.0582568676621033e+01  3.0762804254100644e+01  3.0937407227573853e+01  3.1105422592363496e+01  3.1267842019533507e+01  3.1422807980192719e+01  3.1572087252051031e+01  3.1714013355757594e+01  3.1850590702751507e+01  3.1979797319153601e+01  3.2103444849841502e+01  3.2219506055919432e+01  3.2329723554954661e+01  3.2433042409731542e+01  3.2529534035852166e+01  3.2619535188532360e+01  3.2702803165326607e+01  3.2779603034571473e+01  3.2849502918616743e+01  3.2912849004353873e+01  3.2969408886278678e+01  3.3019647900156706e+01  3.3062709864164333e+01  3.3099050210796776e+01  3.3128589619631605e+01  3.3151202000422543e+01  3.3167409884393393e+01  3.3176942631439523e+01  3.3180131248318524e+01  3.3175257815600531e+01  3.3163987466262000e+01  3.3146179765827263e+01  3.3121763065631136e+01  3.3090494277332972e+01  3.3052192764827161e+01  3.3007732278764706e+01  3.2956109712987065e+01  3.2897729345997213e+01  3.2833048878908684e+01  3.2761934051655842e+01  3.2682843458886161e+01  3.2597940984337669e+01  3.2505824121559009e+01  3.2407619265297733e+01  3.2302494757854156e+01  3.2191262592307517e+01  3.2073138586448550e+01  3.1948565196130282e+01  3.1817309825819713e+01  3.1679390098541862e+01  3.1535976957601385e+01  3.1384799601916839e+01  3.1227818103111243e+01  3.1064604874370971e+01  3.0894770960478329e+01  3.0718515973370124e+01  3.0535980511467649e+01  3.0348265166604762e+01  3.0153071091492027e+01  2.9952527788513983e+01  2.9745250767425127e+01  2.9531697691454362e+01  2.9313194967453111e+01  2.9088124535505969e+01  2.8856936140779535e+01  2.8620126831921233e+01  2.8377416431017110e+01  2.8128684995545381e+01  2.7874773704707465e+01  2.7614447357505679e+01  2.7348998908011932e+01  2.7077708733453221e+01  2.6800916289671068e+01  2.6519243255534942e+01  2.6231247060925519e+01  2.5938308783295394e+01  2.5640024909058333e+01  2.5337121431607105e+01  2.5028672447427336e+01  2.4714208332517629e+01  2.4395487827551893e+01  2.4072253361646677e+01  2.3743971152658105e+01  2.3409483244790053e+01  2.3071676643909544e+01  2.2728654713234537e+01  2.2381098171917749e+01  2.2028425376448389e+01  2.1671953877148209e+01  2.1310906680338782e+01  2.0945351339759327e+01  2.0575661608212712e+01  2.0201841574165350e+01  1.9823033737644590e+01  1.9441545800225022e+01  1.9055592792455219e+01  1.8664672006863512e+01  1.8271765025423822e+01  1.7873849158559896e+01  1.7472194604116538e+01  1.7068012116020522e+01  1.6660048967056106e+01  1.6248954680672895e+01  1.5831530763563336e+01  1.5413614232193572e+01  1.4992302330284454e+01  1.4567389907039185e+01  1.4139884607185753e+01  1.3710719910401131e+01  1.3274471474341912e+01  1.2839232106590467e+01  1.2401309426746428e+01  1.1960003731613417e+01  1.1516983228127055e+01  1.1071300263951075e+01  1.0623435151953448e+01  1.0173189286913447e+01  9.7220040318965779e+00  9.2675115640799213e+00  8.8115615369903981e+00  8.3520023521560365e+00  7.8931228522889132e+00  7.4326997916356543e+00  6.9705455117835999e+00  6.5073640742709653e+00  6.0429594724512681e+00  5.5772176486213585e+00  5.1107637963289188e+00  4.6430514852051248e+00  4.1761355817713426e+00  3.7076649990671111e+00  3.2394832523916408e+00  2.7717566223278820e+00  2.3051462181819349e+00  1.8411394089699298e+00  1.3830295586959704e+00  2.8915258077768225e+01  2.9144805993340071e+01  2.9368383548673560e+01  2.9585852635012813e+01  2.9797210761460722e+01  3.0002917199024992e+01  3.0202552399670534e+01  3.0395318217634365e+01  3.0582381694741144e+01  3.0763056354540563e+01  3.0937524637904598e+01  3.1105871876754545e+01  3.1267580530477144e+01  3.1422667206006238e+01  3.1572029743433053e+01  3.1714450345522710e+01  3.1850564352513381e+01  3.1979683157510483e+01  3.2103057401545492e+01  3.2219354821732075e+01  3.2329368366859953e+01  3.2432682111122126e+01  3.2529250771857434e+01  3.2619572852467371e+01  3.2703625353425217e+01  3.2780150945968536e+01  3.2849360661103383e+01  3.2912870302742171e+01  3.2969750988583840e+01  3.3019285544379542e+01  3.3062511208953367e+01  3.3098968949022776e+01  3.3128582905701009e+01  3.3151697641158108e+01  3.3167410867474402e+01  3.3176655807831395e+01  3.3179407070127752e+01  3.3175133773892071e+01  3.3163775891956881e+01  3.3146276983338730e+01  3.3121728394505645e+01  3.3090500285935619e+01  3.3052521278551964e+01  3.3007550598659385e+01  3.2956356585268196e+01  3.2897872978657155e+01  3.2833051541165233e+01  3.2761205948227683e+01  3.2682746978522864e+01  3.2597866823436689e+01  3.2506290025468438e+01  3.2408041505084483e+01  3.2302617827457944e+01  3.2191163223845287e+01  3.2073471742479335e+01  3.1948257521771296e+01  3.1816883031947160e+01  3.1679557881617690e+01  3.1535578849685702e+01  3.1384779896651096e+01  3.1227768594539885e+01  3.1064506349772785e+01  3.0894587590945331e+01  3.0718661868162279e+01  3.0536216302532146e+01  3.0347690285717427e+01  3.0153174109980498e+01  2.9951918846398005e+01  2.9745306589508910e+01  2.9532101955851697e+01  2.9312706309649915e+01  2.9087974186417071e+01  2.8857035021745151e+01  2.8620161030666779e+01  2.8377344994115028e+01  2.8128710355777432e+01  2.7874419380818999e+01  2.7614203675908154e+01  2.7348882365268459e+01  2.7077750520076133e+01  2.6801304756970811e+01  2.6519030369698935e+01  2.6231358236721348e+01  2.5938492697971370e+01  2.5640338057305250e+01  2.5336871786242170e+01  2.5028174183051693e+01  2.4714368680782844e+01  2.4395551712475548e+01  2.4071851544788846e+01  2.3743405521651031e+01  2.3409586600639894e+01  2.3071692554356620e+01  2.2728588400545046e+01  2.2380844885445956e+01  2.2028699687927563e+01  2.1672032238395886e+01  2.1311172430565410e+01  2.0945380229966677e+01  2.0575522484752575e+01  2.0201439931815163e+01  1.9823581905498003e+01  1.9441509039177042e+01  1.9055557613469542e+01  1.8665446412850425e+01  1.8271463249263874e+01  1.7873732577838854e+01  1.7472840849747350e+01  1.7068102900944805e+01  1.6659562922216629e+01  1.6247597253678389e+01  1.5832801238561698e+01  1.5414564128472264e+01  1.4992734138004698e+01  1.4568007226887204e+01  1.4139483031920882e+01  1.3709666838778348e+01  1.3277371421136307e+01  1.2840600415190766e+01  1.2402804349109203e+01  1.1960668858484970e+01  1.1516471989771397e+01  1.1071515048674419e+01  1.0623543803775119e+01  1.0173364781191440e+01  9.7211334157937657e+00  9.2672436408297987e+00  8.8103889348366557e+00  8.3529819789838715e+00  7.8926266265901024e+00  7.4322415771787922e+00  6.9703718250330233e+00  6.5073467166132843e+00  6.0427598001204750e+00  5.5773238796704057e+00  5.1108818312084612e+00  4.6433652048931142e+00  4.1762042616005717e+00  3.7073851433500016e+00  3.2391733582673155e+00  2.7715189784369012e+00  2.3049945254277162e+00  1.8410288661730181e+00  1.3829934998539304e+00  2.8915239110479806e+01  2.9144732259573548e+01  2.9368297006788541e+01  2.9585980492189680e+01  2.9797182160002933e+01  3.0003055242794993e+01  3.0202322146376325e+01  3.0395415230249910e+01  3.0582274119348593e+01  3.0763146351894822e+01  3.0937591347713017e+01  3.1105538504301620e+01  3.1267794534345807e+01  3.1423141283509501e+01  3.1571805381415661e+01  3.1714459892715759e+01  3.1850257524805787e+01  3.1979922066344660e+01  3.2102802786809612e+01  3.2219596406574020e+01  3.2329287368994734e+01  3.2432323228801714e+01  3.2529618265169965e+01  3.2619346955603149e+01  3.2703022016161889e+01  3.2779434365783970e+01  3.2849626628910080e+01  3.2912933233810627e+01  3.2969639864543296e+01  3.3019473684146355e+01  3.3062247416598190e+01  3.3098609555584055e+01  3.3128291494507629e+01  3.3151251291213221e+01  3.3167081213216541e+01  3.3176581971780621e+01  3.3179219980866556e+01  3.3175152579379514e+01  3.3163929176556280e+01  3.3146628818583658e+01  3.3121852239542534e+01  3.3090573180018417e+01  3.3052444218048841e+01  3.3007756457310926e+01  3.2956083787658478e+01  3.2897941202704466e+01  3.2833059011090441e+01  3.2761247631283908e+01  3.2683106579074916e+01  3.2597425678577792e+01  3.2506114889524305e+01  3.2407461178657705e+01  3.2302876677350689e+01  3.2191151499832500e+01  3.2072562437526365e+01  3.1948220085252313e+01  3.1816826699313214e+01  3.1679940608634137e+01  3.1535752004749799e+01  3.1385006969813585e+01  3.1228298511939457e+01  3.1064608993847834e+01  3.0895007421189955e+01  3.0718373833054589e+01  3.0536125193541483e+01  3.0347522403861319e+01  3.0153064904537686e+01  2.9952070075959252e+01  2.9744937465281474e+01  2.9532050188674237e+01  2.9313233953108625e+01  2.9087894329975864e+01  2.8857073370536128e+01  2.8620023236488819e+01  2.8377192154865551e+01  2.8128702208919258e+01  2.7874665123819696e+01  2.7614745571908873e+01  2.7349021378623878e+01  2.7077751135342275e+01  2.6801064101640609e+01  2.6519108929875237e+01  2.6231333966633724e+01  2.5938147529229049e+01  2.5640059411726650e+01  2.5336669807370701e+01  2.5028017990576192e+01  2.4714432283212929e+01  2.4395661739075681e+01  2.4071996163513464e+01  2.3743418095429508e+01  2.3409627563299114e+01  2.3071498205011487e+01  2.2728399446234604e+01  2.2380708939195952e+01  2.2029031451502146e+01  2.1672043959440806e+01  2.1311013496060728e+01  2.0945406740569709e+01  2.0575574339895962e+01  2.0201728346682582e+01  1.9823656397369920e+01  1.9441567514576150e+01  1.9055476119041607e+01  1.8665152442461522e+01  1.8272221066360196e+01  1.7874089944332272e+01  1.7472621829069034e+01  1.7067946223181092e+01  1.6660076443366773e+01  1.6248533372965252e+01  1.5832435022804042e+01  1.5413957152078021e+01  1.4992612019205579e+01  1.4567322823271011e+01  1.4140905454554067e+01  1.3710401280333601e+01  1.3276067606864414e+01  1.2840143675835296e+01  1.2402064779247162e+01  1.1960263337935745e+01  1.1516885732751943e+01  1.1071658496053205e+01  1.0623599469447891e+01  1.0173392131431074e+01  9.7212566057743963e+00  9.2669552155635291e+00  8.8110383263273331e+00  8.3533060317336165e+00  7.8942554174664030e+00  7.4322523077322922e+00  6.9705991012615938e+00  6.5075472768961751e+00  6.0416777306492930e+00  5.5765234800131749e+00  5.1104170184563120e+00  4.6428204334649559e+00  4.1759663080950764e+00  3.7071541186101808e+00  3.2391222103090560e+00  2.7715018351701683e+00  2.3049700451898456e+00  1.8409902895803714e+00  1.3830445025633633e+00  2.8915843933568901e+01  2.9145322632312176e+01  2.9368462924689325e+01  2.9586310303960822e+01  2.9797362799949614e+01  3.0002938327098455e+01  3.0202075368980928e+01  3.0395250036451365e+01  3.0582327724673899e+01  3.0763533183287986e+01  3.0938219421399697e+01  3.1105687753189528e+01  3.1267296318257038e+01  3.1423134629104730e+01  3.1572166068474264e+01  3.1714106314197046e+01  3.1850416173838266e+01  3.1979400621074753e+01  3.2102976445505028e+01  3.2219294805150867e+01  3.2328916965236999e+01  3.2432724719302577e+01  3.2529607189823338e+01  3.2619572447349299e+01  3.2702901109674436e+01  3.2779671974740815e+01  3.2849738376103410e+01  3.2913282931593969e+01  3.2969494954397376e+01  3.3019314728059250e+01  3.3062277000871262e+01  3.3098812627622571e+01  3.3128240173666477e+01  3.3151409888873623e+01  3.3167632328764945e+01  3.3176873403433603e+01  3.3179149450172865e+01  3.3174973615768025e+01  3.3164313553737053e+01  3.3146461544552118e+01  3.3121816650184755e+01  3.3090712706207349e+01  3.3052263433945569e+01  3.3007380981147250e+01  3.2955799998830550e+01  3.2897680314573073e+01  3.2832913337206676e+01  3.2761339145946799e+01  3.2682942145652255e+01  3.2597649443322837e+01  3.2506255654791566e+01  3.2407746652017401e+01  3.2302670251063610e+01  3.2191267878187489e+01  3.2072989648606786e+01  3.1948231272179733e+01  3.1817828501736056e+01  3.1679909577506862e