<?xml version="1.0"?>
<VTKFile type="UnstructuredGrid"  version="0.1"  >
<UnstructuredGrid>
<Piece  NumberOfPoints="4160" NumberOfCells="16142">
<Points>
<DataArray  type="Float64"  NumberOfComponents="3"  format="ascii">0.14 0 -0.09000000000000001  0.21 0 -0.09000000000000001  0.1373099392564523 0.02731264508225804 -0.09000000000000001  0.2059649088846784 0.04096896762338705 -0.09000000000000001  0.14 0 -0.02  0.21 0 -0.02  0.1373099392564523 0.02731264508225797 -0.02  0.2059649088846784 0.04096896762338705 -0.02  0.1915 0 -0.02  0.175 0.0165 -0.02  0.1585 0 -0.02  0.1373099392564523 -0.02731264508225797 -0.09000000000000001  0.2059649088846784 -0.04096896762338696 -0.09000000000000001  0.2059649088846784 -0.04096896762338696 -0.02  0.1373099392564523 -0.02731264508225805 -0.02  0.175 -0.0165 -0.02  0.1940147018273702 0.08036352079666885 -0.09000000000000001  0.1293431345515802 0.05357568053111257 -0.09000000000000001  0.1164057457223563 0.07777983262274438 -0.09000000000000001  0.1746086185835344 0.1166697489341166 -0.09000000000000001  0.1940147018273702 0.08036352079666885 -0.02  0.1769229304759114 0.07328387729791469 -0.02  0.146434905903039 0.06065532402986673 -0.02  0.1293431345515802 0.05357568053111257 -0.02  0.1746086185835344 0.1166697489341166 -0.02  0.1164057457223564 0.07777983262274432 -0.02  0.1553646415554512 0.08221361295032695 -0.02  0.1679931948234991 0.05172558837745448 -0.02  0.148492424049175 0.148492424049175 -0.09000000000000001  0.09899494936611666 0.09899494936611665 -0.09000000000000001  0.07777983262274425 0.1164057457223564 -0.09000000000000001  0.1166697489341164 0.1746086185835346 -0.09000000000000001  0.148492424049175 0.148492424049175 -0.02  0.1354109485972239 0.1354109485972238 -0.02  0.1120764248180678 0.1120764248180678 -0.02  0.09899494936611666 0.09899494936611665 -0.02  0.1166697489341164 0.1746086185835346 -0.02  0.07777983262274432 0.1164057457223564 -0.02  0.1120764248180678 0.1354109485972238 -0.02  0.1354109485972239 0.1120764248180678 -0.02  0.08036352079666885 0.1940147018273702 -0.09000000000000001  0.05357568053111257 0.1293431345515802 -0.09000000000000001  0.02731264508225788 0.1373099392564523 -0.09000000000000001  0.04096896762338683 0.2059649088846784 -0.09000000000000001  0.08036352079666885 0.1940147018273702 -0.02  0.07328387729791469 0.1769229304759114 -0.02  0.06065532402986673 0.146434905903039 -0.02  0.05357568053111257 0.1293431345515802 -0.02  0.04096896762338683 0.2059649088846784 -0.02  0.02731264508225797 0.1373099392564523 -0.02  0.05172558837745448 0.1679931948234991 -0.02  0.08221361295032695 0.1553646415554512 -0.02  1.285879139104721e-17 0.21 -0.09000000000000001  8.572527594031473e-18 0.14 -0.09000000000000001  -0.02731264508225804 0.1373099392564522 -0.09000000000000001  -0.04096896762338704 0.2059649088846784 -0.09000000000000001  1.285879139104721e-17 0.21 -0.02  1.172599310183591e-17 0.1915 -0.02  9.705325883242774e-18 0.1585 -0.02  8.572527594031473e-18 0.14 -0.02  -0.04096896762338704 0.2059649088846784 -0.02  -0.02731264508225796 0.1373099392564523 -0.02  -0.01649999999999999 0.175 -0.02  0.01650000000000001 0.175 -0.02  -0.08036352079666884 0.1940147018273702 -0.09000000000000001  -0.05357568053111256 0.1293431345515802 -0.09000000000000001  -0.07777983262274438 0.1164057457223563 -0.09000000000000001  -0.1166697489341166 0.1746086185835344 -0.09000000000000001  -0.08036352079666884 0.1940147018273702 -0.02  -0.07328387729791469 0.1769229304759114 -0.02  -0.06065532402986672 0.146434905903039 -0.02  -0.05357568053111256 0.1293431345515802 -0.02  -0.1166697489341166 0.1746086185835344 -0.02  -0.07777983262274432 0.1164057457223564 -0.02  -0.08221361295032693 0.1553646415554512 -0.02  -0.05172558837745447 0.1679931948234991 -0.02  -0.148492424049175 0.148492424049175 -0.09000000000000001  -0.09899494936611665 0.09899494936611666 -0.09000000000000001  -0.1164057457223564 0.07777983262274427 -0.09000000000000001  -0.1746086185835345 0.1166697489341164 -0.09000000000000001  -0.148492424049175 0.148492424049175 -0.02  -0.1354109485972238 0.1354109485972239 -0.02  -0.1120764248180678 0.1120764248180678 -0.02  -0.09899494936611665 0.09899494936611666 -0.02  -0.1746086185835345 0.1166697489341164 -0.02  -0.1164057457223563 0.07777983262274435 -0.02  -0.1354109485972238 0.1120764248180678 -0.02  -0.1120764248180678 0.1354109485972239 -0.02  -0.1940147018273702 0.08036352079666888 -0.09000000000000001  -0.1293431345515802 0.05357568053111259 -0.09000000000000001  -0.1373099392564523 0.02731264508225789 -0.09000000000000001  -0.2059649088846784 0.04096896762338684 -0.09000000000000001  -0.1940147018273702 0.08036352079666888 -0.02  -0.1769229304759114 0.07328387729791472 -0.02  -0.146434905903039 0.06065532402986675 -0.02  -0.1293431345515802 0.05357568053111259 -0.02  -0.2059649088846784 0.04096896762338684 -0.02  -0.1373099392564523 0.02731264508225798 -0.02  -0.1679931948234991 0.05172558837745449 -0.02  -0.1553646415554512 0.08221361295032696 -0.02  -0.21 2.571758278209441e-17 -0.09000000000000001  -0.14 1.714505518806294e-17 -0.09000000000000001  -0.1373099392564523 -0.02731264508225804 -0.09000000000000001  -0.2059649088846784 -0.04096896762338704 -0.09000000000000001  -0.21 2.571758278209441e-17 -0.02  -0.1915 2.345198620367181e-17 -0.02  -0.1585 1.941065176648555e-17 -0.02  -0.14 1.714505518806294e-17 -0.02  -0.2059649088846784 -0.04096896762338704 -0.02  -0.1373099392564523 -0.02731264508225796 -0.02  -0.175 -0.01649999999999998 -0.02  -0.175 0.01650000000000002 -0.02  -0.1940147018273702 -0.08036352079666884 -0.09000000000000001  -0.1293431345515802 -0.05357568053111256 -0.09000000000000001  -0.1164057457223563 -0.07777983262274438 -0.09000000000000001  -0.1746086185835345 -0.1166697489341165 -0.09000000000000001  -0.1940147018273702 -0.08036352079666884 -0.02  -0.1769229304759114 -0.07328387729791469 -0.02  -0.146434905903039 -0.06065532402986672 -0.02  -0.1293431345515802 -0.05357568053111256 -0.02  -0.1746086185835345 -0.1166697489341165 -0.02  -0.1164057457223564 -0.07777983262274432 -0.02  -0.1553646415554512 -0.08221361295032693 -0.02  -0.1679931948234992 -0.05172558837745446 -0.02  -0.148492424049175 -0.148492424049175 -0.09000000000000001  -0.09899494936611669 -0.09899494936611665 -0.09000000000000001  -0.07777983262274432 -0.1164057457223563 -0.09000000000000001  -0.1166697489341165 -0.1746086185835345 -0.09000000000000001  -0.148492424049175 -0.148492424049175 -0.02  -0.1354109485972239 -0.1354109485972238 -0.02  -0.1120764248180678 -0.1120764248180678 -0.02  -0.09899494936611669 -0.09899494936611665 -0.02  -0.1166697489341165 -0.1746086185835345 -0.02  -0.07777983262274439 -0.1164057457223563 -0.02  -0.1120764248180678 -0.1354109485972238 -0.02  -0.1354109485972239 -0.1120764248180678 -0.02  -0.08036352079666896 -0.1940147018273702 -0.09000000000000001  -0.05357568053111265 -0.1293431345515801 -0.09000000000000001  -0.0273126450822579 -0.1373099392564523 -0.09000000000000001  -0.04096896762338685 -0.2059649088846784 -0.09000000000000001  -0.08036352079666896 -0.1940147018273702 -0.02  -0.07328387729791479 -0.1769229304759114 -0.02  -0.06065532402986681 -0.1464349059030389 -0.02  -0.05357568053111265 -0.1293431345515801 -0.02  -0.04096896762338685 -0.2059649088846784 -0.02  -0.02731264508225799 -0.1373099392564523 -0.02  -0.05172558837745456 -0.1679931948234991 -0.02  -0.08221361295032702 -0.1553646415554512 -0.02  -3.857637417314163e-17 -0.21 -0.09000000000000001  -2.571758278209442e-17 -0.14 -0.09000000000000001  0.02731264508225808 -0.1373099392564523 -0.09000000000000001  0.04096896762338711 -0.2059649088846784 -0.09000000000000001  -3.857637417314163e-17 -0.21 -0.02  -3.517797930550773e-17 -0.1915 -0.02  -2.911597764972832e-17 -0.1585 -0.02  -2.571758278209442e-17 -0.14 -0.02  0.04096896762338711 -0.2059649088846784 -0.02  0.027312645082258 -0.1373099392564523 -0.02  0.01649999999999997 -0.175 -0.02  -0.01650000000000003 -0.175 -0.02  0.08036352079666889 -0.1940147018273702 -0.09000000000000001  0.05357568053111261 -0.1293431345515801 -0.09000000000000001  0.07777983262274436 -0.1164057457223563 -0.09000000000000001  0.1166697489341165 -0.1746086185835345 -0.09000000000000001  0.08036352079666889 -0.1940147018273702 -0.02  0.07328387729791473 -0.1769229304759114 -0.02  0.06065532402986677 -0.1464349059030389 -0.02  0.05357568053111261 -0.1293431345515801 -0.02  0.1166697489341165 -0.1746086185835345 -0.02  0.07777983262274431 -0.1164057457223564 -0.02  0.08221361295032698 -0.1553646415554512 -0.02  0.05172558837745452 -0.1679931948234991 -0.02  0.1484924240491749 -0.148492424049175 -0.09000000000000001  0.09899494936611664 -0.09899494936611669 -0.09000000000000001  0.1164057457223563 -0.0777798326227444 -0.09000000000000001  0.1746086185835344 -0.1166697489341166 -0.09000000000000001  0.1484924240491749 -0.148492424049175 -0.02  0.1354109485972238 -0.1354109485972239 -0.02  0.1120764248180678 -0.1120764248180678 -0.02  0.09899494936611664 -0.09899494936611669 -0.02  0.1746086185835344 -0.1166697489341166 -0.02  0.1164057457223562 -0.07777983262274449 -0.02  0.1354109485972238 -0.1120764248180678 -0.02  0.1120764248180677 -0.1354109485972239 -0.02  0.1940147018273702 -0.08036352079666897 -0.09000000000000001  0.1293431345515801 -0.05357568053111266 -0.09000000000000001  0.1940147018273702 -0.08036352079666897 -0.02  0.1769229304759114 -0.07328387729791482 -0.02  0.1464349059030389 -0.06065532402986683 -0.02  0.1293431345515801 -0.05357568053111266 -0.02  0.1679931948234991 -0.05172558837745458 -0.02  0.1553646415554512 -0.08221361295032703 -0.02  0.1915 0 -0.006  0.175 0.0165 -0.006  0.1585 0 -0.006  0.18445 0 -0.006  0.175 0.00945 -0.006  0.16555 0 -0.006  0.175 -0.0165 -0.006  0.175 -0.00945 -0.006  0.1769229304759114 0.07328387729791469 -0.006  0.1704095797717068 0.07058595909974082 -0.006  0.1529482566072435 0.06335324222804062 -0.006  0.146434905903039 0.06065532402986673 -0.006  0.1553646415554512 0.082213612950
[...]
<PointData  Vectors="f_266"> 
<DataArray  type="Float64"  Name="f_266"  NumberOfComponents="3" format="ascii">-2.2890090555977334e+01 9.2776944442345073e+00 0.0000000000000000e+00  -2.3174707247407621e+01 9.3785399407744983e+00 0.0000000000000000e+00  -1.9395192643707631e+01 1.1732117714009338e+01 0.0000000000000000e+00  -1.9649221171933061e+01 1.1864937113872912e+01 0.0000000000000000e+00  -2.0485764752161337e+01 9.5869678862560619e+00 0.0000000000000000e+00  -2.0702306152787848e+01 9.6891062943887150e+00 0.0000000000000000e+00  -1.7617803049539596e+01 1.1677348278629422e+01 0.0000000000000000e+00  -1.8148767373603235e+01 1.1818163396910663e+01 0.0000000000000000e+00  -1.7925098763518360e+01 9.9753448094660015e+00 0.0000000000000000e+00  -1.6611059205427722e+01 1.0773446131828663e+01 0.0000000000000000e+00  -1.7742697344554717e+01 9.9348828128892848e+00 0.0000000000000000e+00  -2.5515660543575152e+01 6.4649206044604011e+00 0.0000000000000000e+00  -2.5842731787831166e+01 6.5264550150946770e+00 0.0000000000000000e+00  -2.4159921349031070e+01 6.9826127745866149e+00 0.0000000000000000e+00  -2.3522455799260374e+01 7.0060090466439320e+00 0.0000000000000000e+00  -1.8703120829442621e+01 9.1042546587307598e+00 0.0000000000000000e+00  -1.5337953500058360e+01 1.3894993527332071e+01 0.0000000000000000e+00  -1.5145325357283642e+01 1.3735477700146244e+01 0.0000000000000000e+00  -1.0321446098607408e+01 1.5212538361102999e+01 0.0000000000000000e+00  -1.0463843761307132e+01 1.5396431082839666e+01 0.0000000000000000e+00  -1.3329167076852677e+01 1.3431654617793564e+01 0.0000000000000000e+00  -1.1091442025410432e+01 1.2862751659973563e+01 0.0000000000000000e+00  -1.0959706731902346e+01 1.2778933680461227e+01 0.0000000000000000e+00  -1.3189459622137342e+01 1.3290450632749321e+01 0.0000000000000000e+00  -9.3744196621485472e+00 1.4853930868124248e+01 0.0000000000000000e+00  -9.0306330931803203e+00 1.4570297685000567e+01 0.0000000000000000e+00  -9.3677003519231388e+00 1.3278019817965642e+01 0.0000000000000000e+00  -1.2416872258442538e+01 1.2237321568137633e+01 0.0000000000000000e+00  -5.1646500939698043e+00 1.6295591478784370e+01 0.0000000000000000e+00  -5.0934242899812832e+00 1.6101633412239153e+01 0.0000000000000000e+00  3.2563490270549061e-01 1.6376500357726886e+01 0.0000000000000000e+00  3.1662204877042788e-01 1.6583520470146755e+01 0.0000000000000000e+00  -3.9244836492101038e+00 1.5129239940251937e+01 0.0000000000000000e+00  -2.5648979619230174e+00 1.3792387890083596e+01 0.0000000000000000e+00  -2.5035161412564246e+00 1.3675535582944244e+01 0.0000000000000000e+00  -3.8831625168525199e+00 1.4970064351807109e+01 0.0000000000000000e+00  8.2916928390327282e-01 1.5628058614408280e+01 0.0000000000000000e+00  9.3327975803332353e-01 1.5244688330589806e+01 0.0000000000000000e+00  -6.9563787289004708e-01 1.3761521016979085e+01 0.0000000000000000e+00  -4.2370754090159597e+00 1.3507246975437964e+01 0.0000000000000000e+00  5.7973615072143474e+00 1.6214769552191068e+01 0.0000000000000000e+00  5.7363064932960155e+00 1.6015884140594149e+01 0.0000000000000000e+00  1.0925969669940281e+01 1.5046556426504395e+01 0.0000000000000000e+00  1.1051766996545572e+01 1.5245148595720385e+01 0.0000000000000000e+00  6.0796072001148955e+00 1.4523119025898941e+01 0.0000000000000000e+00  6.3533284708556250e+00 1.2623138028778760e+01 0.0000000000000000e+00  6.3313983942898595e+00 1.2491812828136018e+01 0.0000000000000000e+00  6.0158358743555027e+00 1.4370282758019448e+01 0.0000000000000000e+00  1.0909228516450112e+01 1.4022038886699523e+01 0.0000000000000000e+00  1.0757593504264836e+01 1.3597379047770595e+01 0.0000000000000000e+00  8.0838557132171829e+00 1.2149344244673010e+01 0.0000000000000000e+00  4.5884516724473103e+00 1.2721155368628876e+01 0.0000000000000000e+00  1.5880023202807584e+01 1.3664521292451266e+01 0.0000000000000000e+00  1.5695910974384695e+01 1.3491059898219429e+01 0.0000000000000000e+00  1.9866220582647752e+01 1.1425213780981652e+01 0.0000000000000000e+00  2.0107729766556549e+01 1.1585123149620591e+01 0.0000000000000000e+00  1.5161318313775785e+01 1.1704348108718563e+01 0.0000000000000000e+00  1.4307813097255917e+01 9.5274451465883665e+00 0.0000000000000000e+00  1.4205849314196339e+01 9.4021778495477868e+00 0.0000000000000000e+00  1.5002088693968604e+01 1.1581413458432591e+01 0.0000000000000000e+00  1.9331686576291752e+01 1.0280493030330705e+01 0.0000000000000000e+00  1.8947422012874330e+01 9.8793185411553832e+00 0.0000000000000000e+00  1.5635921748031830e+01 8.6855339127319517e+00 0.0000000000000000e+00  1.2719152489333169e+01 9.9968046573840841e+00 0.0000000000000000e+00  2.3548297127594950e+01 9.0334014687832163e+00 0.0000000000000000e+00  2.3269134006809661e+01 8.9117433297339659e+00 0.0000000000000000e+00  2.5784913832257292e+01 6.0638299898474450e+00 0.0000000000000000e+00  2.6105376656200345e+01 6.1606749001352421e+00 0.0000000000000000e+00  2.1937740511277831e+01 7.1037553598505809e+00 0.0000000000000000e+00  2.0086830841758587e+01 4.9838304639769015e+00 0.0000000000000000e+00  1.9922857585139266e+01 4.8862688857183496e+00 0.0000000000000000e+00  2.1707623284094595e+01 7.0295770039761090e+00 0.0000000000000000e+00  2.4813677992017222e+01 4.9729376628370563e+00 0.0000000000000000e+00  2.4255274355722037e+01 4.6563132218595182e+00 0.0000000000000000e+00  2.0810079047906431e+01 3.9000481788453740e+00 0.0000000000000000e+00  1.8915856761508739e+01 5.7501073947242256e+00 0.0000000000000000e+00  2.7634128093967107e+01 3.0263935128458148e+00 0.0000000000000000e+00  2.7302413098888668e+01 2.9751405371609656e+00 0.0000000000000000e+00  2.7780406553752247e+01 -2.2080241257763539e-01 0.0000000000000000e+00  2.8131054378164634e+01 -2.0169326803514967e-01 0.0000000000000000e+00  2.5376349023683250e+01 1.4198729559596275e+00 0.0000000000000000e+00  2.2808189198856400e+01 -3.2297016400816747e-01 0.0000000000000000e+00  2.2606872922498560e+01 -3.8029785163055596e-01 0.0000000000000000e+00  2.5110266782396472e+01 1.4056429872590677e+00 0.0000000000000000e+00  2.6520095932470262e+01 -1.0915770032726617e+00 0.0000000000000000e+00  2.5872312713124899e+01 -1.2756781624559923e+00 0.0000000000000000e+00  2.2817209007766579e+01 -1.4824466522065043e+00 0.0000000000000000e+00  2.2233190255063107e+01 6.2394944598529500e-01 0.0000000000000000e+00  2.7515115201317744e+01 -3.4408906761495111e+00 0.0000000000000000e+00  2.7181284976273414e+01 -3.4141463392963809e+00 0.0000000000000000e+00  2.5548484335231887e+01 -6.4718256571040182e+00 0.0000000000000000e+00  2.5876086855783637e+01 -6.5332654958631515e+00 0.0000000000000000e+00  2.4953657030296991e+01 -4.4781254587764172e+00 0.0000000000000000e+00  2.2060533542803221e+01 -5.5753345121190492e+00 0.0000000000000000e+00  2.1848107954559818e+01 -5.5861101681225582e+00 0.0000000000000000e+00  2.4691631185445317e+01 -4.4309237830012380e+00 0.0000000000000000e+00  2.4191425867066432e+01 -6.9895156371661606e+00 0.0000000000000000e+00  2.3552614361812410e+01 -7.0130936205781227e+00 0.0000000000000000e+00  2.1352466627455648e+01 -6.6351858225589693e+00 0.0000000000000000e+00  2.2169287552601048e+01 -4.5917618051431157e+00 0.0000000000000000e+00  2.3208643855822565e+01 -9.3849888824134009e+00 0.0000000000000000e+00  2.2923361902024133e+01 -9.2842521606706470e+00 0.0000000000000000e+00  1.9427383210245850e+01 -1.1738602554900510e+01 0.0000000000000000e+00  1.9681940002343282e+01 -1.1871342196264132e+01 0.0000000000000000e+00  2.0734839708324259e+01 -9.6956897851955155e+00 0.0000000000000000e+00  1.7958826067699807e+01 -9.9818509804274651e+00 0.0000000000000000e+00  1.7766653231007357e+01 -9.9423679130048921e+00 0.0000000000000000e+00  2.0515956759890141e+01 -9.5938285877360787e+00 0.0000000000000000e+00  1.8179600960958030e+01 -1.1824771869294260e+01 0.0000000000000000e+00  1.7647210603615239e+01 -1.1684080114050523e+01 0.0000000000000000e+00  1.6639789656884858e+01 -1.0780435431931734e+01 0.0000000000000000e+00  1.8732629573318288e+01 -9.1112549625594639e+00 0.0000000000000000e+00  1.5368163822334239e+01 -1.3901586483849650e+01 0.0000000000000000e+00  1.5175244643850915e+01 -1.3742103211134992e+01 0.0000000000000000e+00  1.0348510118205944e+01 -1.5219380856215613e+01 0.0000000000000000e+00  1.0491045666141078e+01 -1.5403284308870928e+01 0.0000000000000000e+00  1.3355652060522788e+01 -1.3438614358789469e+01 0.0000000000000000e+00  1.1114395320768550e+01 -1.2870291216138826e+01 0.0000000000000000e+00  1.0979216160842370e+01 -1.2785770778402151e+01 0.0000000000000000e+00  1.3215257997718366e+01 -1.3297386109124892e+01 0.0000000000000000e+00  9.3989996935141651e+00 -1.4861120658140452e+01 0.0000000000000000e+00  9.0544806421278921e+00 -1.4577546704892317e+01 0.0000000000000000e+00  9.3890341946375635e+00 -1.3285720014535826e+01 0.0000000000000000e+00  1.2439590891240192e+01 -1.2244651526699103e+01 0.0000000000000000e+00  5.1886510533234382e+00 -1.6302592980579700e+01 0.0000000000000000e+00  5.1174499424397339e+00 -1.6108600970957685e+01 0.0000000000000000e+00  -3.0439636305490014e-01 -1.6383392679620737e+01 0.0000000000000000e+00  -2.9553253021078524e-01 -1.6590425815407080e+01 0.0000000000000000e+00  3.9443351228282668e+00 -1.5136689501521360e+01 0.0000000000000000e+00  2.5797193777255671e+00 -1.3799871144394254e+01 0.0000000000000000e+00  2.5200209324811342e+00 -1.3684849194929635e+01 0.0000000000000000e+00  3.9032489279018332e+00 -1.4977697014902891e+01 0.0000000000000000e+00  -8.1108275690070231e-01 -1.5635088005413525e+01 0.0000000000000000e+00  -9.1555684387036040e-01 -1.5251818154171657e+01 0.0000000000000000e+00  7.0961199303982803e-01 -1.3769467628332354e+01 0.0000000000000000e+00  4.2535021123934227e+00 -1.3515707329497905e+01 0.0000000000000000e+00  -5.7784913046928645e+00 -1.6221441718616365e+01 0.0000000000000000e+00  -5.7171686874772583e+00 -1.6022585150780387e+01 0.0000000000000000e+00  -1.0907851620436938e+01 -1.5053120028623376e+01 0.0000000000000000e+00  -1.1033902476783032e+01 -1.5251647248049386e+01 0.0000000000000000e+00  -6.0656155596637777e+00 -1.4529526220409647e+01 0.0000000000000000e+00  -6.3450170285177672e+00 -1.2628041526672822e+01 0.0000000000000000e+00  -6.3228334100432351e+00 -1.2498111530330949e+01 0.0000000000000000e+00  -6.0014707312533364e+00 -1.4376854907069635e+01 0.0000000000000000e+00  -1.0894428143344355e+01 -1.4028226431156645e+01 0.0000000000000000e+00  -1.0743153088461977e+01 -1.3603653156954978e+01 0.0000000000000000e+00  -8.0761268193734548e+00 -1.2154918305455425e+01 0.0000000000000000e+00  -4.5796607534063192e+00 -1.2727282431699930e+01 0.0000000000000000e+00  -1.5862070464423233e+01 -1.3671055583000191e+01 0.0000000000000000e+00  -1.5677727334283011e+01 -1.3497677643165078e+01 0.0000000000000000e+00  -1.9846990473461343e+01 -1.1432144610888649e+01 0.0000000000000000e+00  -2.0088673235219581e+01 -1.1592003429080574e+01 0.0000000000000000e+00  -1.5147636493216332e+01 -1.1710248348774009e+01 0.0000000000000000e+00  -1.4298505384298608e+01 -9.5317824519673877e+00 0.0000000000000000e+00  -1.4197539432591128e+01 -9.4091575146779025e+00 0.0000000000000000e+00  -1.4988270682293816e+01 -1.1587658448411206e+01 0.0000000000000000e+00  -1.9315449164945651e+01 -1.0287045697187729e+01 0.0000000000000000e+00  -1.8931522861242563e+01 -9.8858532027106492e+00 0.0000000000000000e+00  -1.5626657796476263e+01 -8.6903081641279414e+00 0.0000000000000000e+00  -1.2710429878078141e+01 -1.0001137329207737e+01 0.0000000000000000e+00  -2.3527422737148370e+01 -9.0408982012653158e+00 0.0000000000000000e+00  -2.3248114099821958e+01 -8.9192195630877720e+00 0.0000000000000000e+00  -2.5761562481481096e+01 -6.0719264333162215e+00 0.0000000000000000e+00  -2.6082107994833002e+01 -6.1689147881126383e+00 0.0000000000000000e+00  -2.1921093931936987e+01 -7.1110042030442386e+00 0.0000000000000000e+00  -2.0074398543934649e+01 -4.9901068644118736e+00 0.0000000000000000e+00  -1.9909131395110418e+01 -4.8909471443955326e+00 0.0000000000000000e+00  -2.1690507710665852e+01 -7.0364868564602645e+00 0.0000000000000000e+00  -2.4793288425405152e+01 -4.9815588338363410e+00 0.0000000000000000e+00  -2.4235131137277207e+01 -4.6646531575647883e+00 0.0000000000000000e+00  -2.0796652600293370e+01 -3.9062235494821627e+00 0.0000000000000000e+00  -1.8904483489181473e+01 -5.7558613714150750e+00 0.0000000000000000e+00  -2.7608196913555918e+01 -3.0350240182623578e+00 0.0000000000000000e+00  -2.7276439683151349e+01 -2.9835402203087065e+00 0.0000000000000000e+00  -2.7751735458812743e+01 2.1268150783009301e-01 0.0000000000000000e+00  -2.8102271676713340e+01 1.9345200638712637e-01 0.0000000000000000e+00  -2.5355160960457276e+01 -1.4301598996499552e+00 0.0000000000000000e+00  -2.2793611316455458e+01 3.0982223024203709e-01 0.0000000000000000e+00  -2.2587996608953475e+01 3.7025243565548321e-01 0.0000000000000000e+00  -2.5088245412361417e+01 -1.4150329457543984e+00 0.0000000000000000e+00  -2.6494132210464794e+01 1.0827754407579071e+00 0.0000000000000000e+00  -2.5846907365558607e+01 1.2669818081604103e+00 0.0000000000000000e+00  -2.2799289396906797e+01 1.4710638580890882e+00 0.0000000000000000e+00  -2.2218346338027498e+01 -6.3576518418843653e-01 0.0000000000000000e+00  -2.7483746457513821e+01 3.4334187293986247e+00 0.0000000000000000e+00  -2.7150190798663559e+01 3.4066521767581932e+00 0.0000000000000000e+00  -2.4926231883611383e+01 4.4705146225101728e+00 0.0000000000000000e+00  -2.2036702962663863e+01 5.5681097817341403e+00 0.0000000000000000e+00  -2.1825738033064976e+01 5.5783173363816339e+00 0.0000000000000000e+00  -2.4664468928469862e+01 4.4231868567907711e+00 0.0000000000000000e+00  -2.1328134296416867e+01 6.6280732891056919e+00 0.0000000000000000e+00  -2.2147042596208188e+01 4.5841053422912674e+00 0.0000000000000000e+00  -1.1693150957066596e+01 1.0633092484289984e+01 0.0000000000000000e+00  -1.1228026336019763e+01 1.0850254482019830e+01 0.0000000000000000e+00  -1.1594101593119660e+01 1.0626987588654995e+01 0.0000000000000000e+00  -7.4425566890968540e+00 1.1038638895105237e+01 0.0000000000000000e+00  -7.0634757648733757e+00 1.1146336746179777e+01 0.0000000000000000e+00  -7.3261210922562690e+00 1.1042014504443726e+01 0.0000000000000000e+00  -1.1830913806203670e+01 1.0426977088776889e+01 0.0000000000000000e+00  -7.4591940700510486e+00 1.0963657356269836e+01 0.0000000000000000e+00  -6.0676979291370827e+00 1.1599640326305126e+01 0.0000000000000000e+00  -2.6136587329726848e+00 1.0693744204980979e+01 0.0000000000000000e+00  -2.5513279838506056e+00 1.0669697941924035e+01 0.0000000000000000e+00  -5.9860401300379307e+00 1.1564041310745770e+01 0.0000000000000000e+00  -5.5059902376685246e+00 1.1672075927663077e+01 0.0000000000000000e+00  -2.2375636778628967e+00 1.0684777908075658e+01 0.0000000000000000e+00  -6.3616859133877899e+00 1.1437826968301213e+01 0.0000000000000000e+00  -2.7645793051919640e+00 1.0639917408561139e+01 0.0000000000000000e+00  4.9364131299065528e-01 1.0801958793513386e+01 0.0000000000000000e+00  2.5797955784463391e+00 8.7190529637004950e+00 0.0000000000000000e+00  2.5655951926446758e+00 8.7235946754201894e+00 0.0000000000000000e+00  5.2341576288957059e-01 1.0754867783141858e+01 0.0000000000000000e+00  1.0571545676818250e+00 1.0719100626408208e+01 0.0000000000000000e+00  2.9342535101114757e+00 8.5997801102351055e+00 0.0000000000000000e+00  8.3486136000565495e-02 1.0707570669066161e+01 0.0000000000000000e+00  2.3633530662029365e+00 8.6951963374219901e+00 0.0000000000000000e+00  6.9816410565573737e+00 8.3346398843586318e+00 0.0000000000000000e+00  7.3856335874580656e+00 5.3706362230657332e+00 0.0000000000000000e+00  7.3751454852689706e+00 5.3987185981139652e+00 0.0000000000000000e+00  6.9726608581840299e+00 8.3072164631870393e+00 0.0000000000000000e+00  7.4604985043890073e+00 8.1325786349471212e+00 0.0000000000000000e+00  7.6595024639816849e+00 5.2013121038313308e+00 0.0000000000000000e+00  6.5147243049530008e+00 8.3448261562209716e+00 0.0000000000000000e+00  7.1260788598966647e+00 5.4295311532531931e+00 0.0000000000000000e+00  1.2403281301444730e+01 4.6347526044640004e+00 0.0000000000000000e+00  1.1071165799090013e+01 1.3115404859605602e+00 0.0000000000000000e+00  1.1059717500229478e+01 1.2996002102559205e+00 0.0000000000000000e+00  1.2368253078424855e+01 4.5820298283749246e+00 0.0000000000000000e+00  1.2730672680486093e+01 4.3046095723332662e+00 0.0000000000000000e+00  1.1219325485727984e+01 1.0073354847843181e+00 0.0000000000000000e+00  1.1956753645485575e+01 4.7130954687665740e+00 0.0000000000000000e+00  1.0809414294225867e+01 1.3349142621786441e+00 0.0000000000000000e+00  1.5944528362041854e+01 2.1818370768603318e-01 0.0000000000000000e+00  1.3050733633879782e+01 -3.0467936049440891e+00 0.0000000000000000e+00  1.2997741331007084e+01 -3.0955057934769639e+00 0.0000000000000000e+00  1.5861805704972888e+01 1.4644651766462136e-01 0.0000000000000000e+00  1.6064512269826508e+01 -1.7636383507746647e-01 0.0000000000000000e+00  1.3073328399500905e+01 -3.3350637136520436e+00 0.0000000000000000e+00  1.5579091584918562e+01 3.6232710232924437e-01 0.0000000000000000e+00  1.2848539108306074e+01 -2.9609772000460692e+00 0.0000000000000000e+00  1.7058230736323001e+01 -4.2473747685631835e+00 0.0000000000000000e+00  1.3064793568345682e+01 -6.9130856250857358e+00 0.0000000000000000e+00  1.2986943898600114e+01 -6.9527921463061650e+00 0.0000000000000000e+00  1.6949054317276744e+01 -4.2976419388403793e+00 0.0000000000000000e+00  1.6953751963762212e+01 -4.6365276375720210e+00 0.0000000000000000e+00  1.2941677728707736e+01 -7.1754885875019969e+00 0.0000000000000000e+00  1.6831126588584937e+01 -4.0494900018416953e+00 0.0000000000000000e+00  1.2923616523788588e+01 -6.8224504476709029e+00 0.0000000000000000e+00  1.5574617144135345e+01 -8.0540166623544529e+00 0.0000000000000000e+00  1.1080326983119447e+01 -9.7195438221643133e+00 0.0000000000000000e+00  1.1058516102117732e+01 -9.7173632320455425e+00 0.0000000000000000e+00  1.5492521380412606e+01 -8.0645810842816932e+00 0.0000000000000000e+00  1.5262424795001591e+01 -8.3827140401876115e+00 0.0000000000000000e+00  1.0834229308053891e+01 -9.9171039493695563e+00 0.0000000000000000e+00  1.5518323781266366e+01 -7.8368550571976741e+00 0.0000000000000000e+00  1.1037977671719197e+01 -9.6256636746746516e+00 0.0000000000000000e+00  1.1694127801502463e+01 -1.0642577475573276e+01 0.0000000000000000e+00  7.3647305365030311e+00 -1.1055376282011835e+01 0.0000000000000000e+00  7.4403488611358348e+00 -1.1041174515281707e+01 0.0000000000000000e+00  1.1642910343745610e+01 -1.0632088345344505e+01 0.0000000000000000e+00  1.1252588032411138e+01 -1.0857978392714907e+01 0.0000000000000000e+00  7.0848032577198419e+00 -1.1154834117556918e+01 0.0000000000000000e+00  1.1849842880710172e+01 -1.0435055952015142e+01 0.0000000000000000e+00  7.4823063245588930e+00 -1.0970900041293076e+01 0.0000000000000000e+00  6.0818599948482044e+00 -1.1607773123541838e+01 0.0000000000000000e+00  2.6174787538999800e+00 -1.0701424553981854e+01 0.0000000000000000e+00  2.5996732185723146e+00 -1.0689465315920419e+01 0.0000000000000000e+00  6.0260080619184766e+00 -1.1578854862702581e+01 0.0000000000000000e+00  5.5211964828965030e+00 -1.1681383350737718e+01 0.0000000000000000e+00  2.2438050294944403e+00 -1.0693413701614341e+01 0.0000000000000000e+00  6.3678098286169673e+00 -1.1444733729168490e+01 0.0000000000000000e+00  2.7696833730201194e+00 -1.0648518160495833e+01 0.0000000000000000e+00  -4.8973968279941044e-01 -1.0807280723731839e+01 0.0000000000000000e+00  -2.5610794719275884e+00 -8.7474367167556935e+00 0.0000000000000000e+00  -2.5853484764100538e+00 -8.7142305084610161e+00 0.0000000000000000e+00  -5.1204105079672213e-01 -1.0768531999979018e+01 0.0000000000000000e+00  -1.0495608965153933e+00 -1.0731346034951248e+01 0.0000000000000000e+00  -2.9369599879478492e+00 -8.6078635133995327e+00 0.0000000000000000e+00  -8.1446104488135967e-02 -1.0714790475338345e+01 0.0000000000000000e+00  -2.3632264981207625e+00 -8.7082616267100637e+00 0.0000000000000000e+00  -6.9835980820589718e+00 -8.36