<?xml version="1.0"?>
<VTKFile type="UnstructuredGrid"  version="0.1"  >
<UnstructuredGrid>
<Piece  NumberOfPoints="4160" NumberOfCells="16142">
<Points>
<DataArray  type="Float64"  NumberOfComponents="3"  format="ascii">0.14 0 -0.09000000000000001  0.21 0 -0.09000000000000001  0.1373099392564523 0.02731264508225804 -0.09000000000000001  0.2059649088846784 0.04096896762338705 -0.09000000000000001  0.14 0 -0.02  0.21 0 -0.02  0.1373099392564523 0.02731264508225797 -0.02  0.2059649088846784 0.04096896762338705 -0.02  0.1915 0 -0.02  0.175 0.0165 -0.02  0.1585 0 -0.02  0.1373099392564523 -0.02731264508225797 -0.09000000000000001  0.2059649088846784 -0.04096896762338696 -0.09000000000000001  0.2059649088846784 -0.04096896762338696 -0.02  0.1373099392564523 -0.02731264508225805 -0.02  0.175 -0.0165 -0.02  0.1940147018273702 0.08036352079666885 -0.09000000000000001  0.1293431345515802 0.05357568053111257 -0.09000000000000001  0.1164057457223563 0.07777983262274438 -0.09000000000000001  0.1746086185835344 0.1166697489341166 -0.09000000000000001  0.1940147018273702 0.08036352079666885 -0.02  0.1769229304759114 0.07328387729791469 -0.02  0.146434905903039 0.06065532402986673 -0.02  0.1293431345515802 0.05357568053111257 -0.02  0.1746086185835344 0.1166697489341166 -0.02  0.1164057457223564 0.07777983262274432 -0.02  0.1553646415554512 0.08221361295032695 -0.02  0.1679931948234991 0.05172558837745448 -0.02  0.148492424049175 0.148492424049175 -0.09000000000000001  0.09899494936611666 0.09899494936611665 -0.09000000000000001  0.07777983262274425 0.1164057457223564 -0.09000000000000001  0.1166697489341164 0.1746086185835346 -0.09000000000000001  0.148492424049175 0.148492424049175 -0.02  0.1354109485972239 0.1354109485972238 -0.02  0.1120764248180678 0.1120764248180678 -0.02  0.09899494936611666 0.09899494936611665 -0.02  0.1166697489341164 0.1746086185835346 -0.02  0.07777983262274432 0.1164057457223564 -0.02  0.1120764248180678 0.1354109485972238 -0.02  0.1354109485972239 0.1120764248180678 -0.02  0.08036352079666885 0.1940147018273702 -0.09000000000000001  0.05357568053111257 0.1293431345515802 -0.09000000000000001  0.02731264508225788 0.1373099392564523 -0.09000000000000001  0.04096896762338683 0.2059649088846784 -0.09000000000000001  0.08036352079666885 0.1940147018273702 -0.02  0.07328387729791469 0.1769229304759114 -0.02  0.06065532402986673 0.146434905903039 -0.02  0.05357568053111257 0.1293431345515802 -0.02  0.04096896762338683 0.2059649088846784 -0.02  0.02731264508225797 0.1373099392564523 -0.02  0.05172558837745448 0.1679931948234991 -0.02  0.08221361295032695 0.1553646415554512 -0.02  1.285879139104721e-17 0.21 -0.09000000000000001  8.572527594031473e-18 0.14 -0.09000000000000001  -0.02731264508225804 0.1373099392564522 -0.09000000000000001  -0.04096896762338704 0.2059649088846784 -0.09000000000000001  1.285879139104721e-17 0.21 -0.02  1.172599310183591e-17 0.1915 -0.02  9.705325883242774e-18 0.1585 -0.02  8.572527594031473e-18 0.14 -0.02  -0.04096896762338704 0.2059649088846784 -0.02  -0.02731264508225796 0.1373099392564523 -0.02  -0.01649999999999999 0.175 -0.02  0.01650000000000001 0.175 -0.02  -0.08036352079666884 0.1940147018273702 -0.09000000000000001  -0.05357568053111256 0.1293431345515802 -0.09000000000000001  -0.07777983262274438 0.1164057457223563 -0.09000000000000001  -0.1166697489341166 0.1746086185835344 -0.09000000000000001  -0.08036352079666884 0.1940147018273702 -0.02  -0.07328387729791469 0.1769229304759114 -0.02  -0.06065532402986672 0.146434905903039 -0.02  -0.05357568053111256 0.1293431345515802 -0.02  -0.1166697489341166 0.1746086185835344 -0.02  -0.07777983262274432 0.1164057457223564 -0.02  -0.08221361295032693 0.1553646415554512 -0.02  -0.05172558837745447 0.1679931948234991 -0.02  -0.148492424049175 0.148492424049175 -0.09000000000000001  -0.09899494936611665 0.09899494936611666 -0.09000000000000001  -0.1164057457223564 0.07777983262274427 -0.09000000000000001  -0.1746086185835345 0.1166697489341164 -0.09000000000000001  -0.148492424049175 0.148492424049175 -0.02  -0.1354109485972238 0.1354109485972239 -0.02  -0.1120764248180678 0.1120764248180678 -0.02  -0.09899494936611665 0.09899494936611666 -0.02  -0.1746086185835345 0.1166697489341164 -0.02  -0.1164057457223563 0.07777983262274435 -0.02  -0.1354109485972238 0.1120764248180678 -0.02  -0.1120764248180678 0.1354109485972239 -0.02  -0.1940147018273702 0.08036352079666888 -0.09000000000000001  -0.1293431345515802 0.05357568053111259 -0.09000000000000001  -0.1373099392564523 0.02731264508225789 -0.09000000000000001  -0.2059649088846784 0.04096896762338684 -0.09000000000000001  -0.1940147018273702 0.08036352079666888 -0.02  -0.1769229304759114 0.07328387729791472 -0.02  -0.146434905903039 0.06065532402986675 -0.02  -0.1293431345515802 0.05357568053111259 -0.02  -0.2059649088846784 0.04096896762338684 -0.02  -0.1373099392564523 0.02731264508225798 -0.02  -0.1679931948234991 0.05172558837745449 -0.02  -0.1553646415554512 0.08221361295032696 -0.02  -0.21 2.571758278209441e-17 -0.09000000000000001  -0.14 1.714505518806294e-17 -0.09000000000000001  -0.1373099392564523 -0.02731264508225804 -0.09000000000000001  -0.2059649088846784 -0.04096896762338704 -0.09000000000000001  -0.21 2.571758278209441e-17 -0.02  -0.1915 2.345198620367181e-17 -0.02  -0.1585 1.941065176648555e-17 -0.02  -0.14 1.714505518806294e-17 -0.02  -0.2059649088846784 -0.04096896762338704 -0.02  -0.1373099392564523 -0.02731264508225796 -0.02  -0.175 -0.01649999999999998 -0.02  -0.175 0.01650000000000002 -0.02  -0.1940147018273702 -0.08036352079666884 -0.09000000000000001  -0.1293431345515802 -0.05357568053111256 -0.09000000000000001  -0.1164057457223563 -0.07777983262274438 -0.09000000000000001  -0.1746086185835345 -0.1166697489341165 -0.09000000000000001  -0.1940147018273702 -0.08036352079666884 -0.02  -0.1769229304759114 -0.07328387729791469 -0.02  -0.146434905903039 -0.06065532402986672 -0.02  -0.1293431345515802 -0.05357568053111256 -0.02  -0.1746086185835345 -0.1166697489341165 -0.02  -0.1164057457223564 -0.07777983262274432 -0.02  -0.1553646415554512 -0.08221361295032693 -0.02  -0.1679931948234992 -0.05172558837745446 -0.02  -0.148492424049175 -0.148492424049175 -0.09000000000000001  -0.09899494936611669 -0.09899494936611665 -0.09000000000000001  -0.07777983262274432 -0.1164057457223563 -0.09000000000000001  -0.1166697489341165 -0.1746086185835345 -0.09000000000000001  -0.148492424049175 -0.148492424049175 -0.02  -0.1354109485972239 -0.1354109485972238 -0.02  -0.1120764248180678 -0.1120764248180678 -0.02  -0.09899494936611669 -0.09899494936611665 -0.02  -0.1166697489341165 -0.1746086185835345 -0.02  -0.07777983262274439 -0.1164057457223563 -0.02  -0.1120764248180678 -0.1354109485972238 -0.02  -0.1354109485972239 -0.1120764248180678 -0.02  -0.08036352079666896 -0.1940147018273702 -0.09000000000000001  -0.05357568053111265 -0.1293431345515801 -0.09000000000000001  -0.0273126450822579 -0.1373099392564523 -0.09000000000000001  -0.04096896762338685 -0.2059649088846784 -0.09000000000000001  -0.08036352079666896 -0.1940147018273702 -0.02  -0.07328387729791479 -0.1769229304759114 -0.02  -0.06065532402986681 -0.1464349059030389 -0.02  -0.05357568053111265 -0.1293431345515801 -0.02  -0.04096896762338685 -0.2059649088846784 -0.02  -0.02731264508225799 -0.1373099392564523 -0.02  -0.05172558837745456 -0.1679931948234991 -0.02  -0.08221361295032702 -0.1553646415554512 -0.02  -3.857637417314163e-17 -0.21 -0.09000000000000001  -2.571758278209442e-17 -0.14 -0.09000000000000001  0.02731264508225808 -0.1373099392564523 -0.09000000000000001  0.04096896762338711 -0.2059649088846784 -0.09000000000000001  -3.857637417314163e-17 -0.21 -0.02  -3.517797930550773e-17 -0.1915 -0.02  -2.911597764972832e-17 -0.1585 -0.02  -2.571758278209442e-17 -0.14 -0.02  0.04096896762338711 -0.2059649088846784 -0.02  0.027312645082258 -0.1373099392564523 -0.02  0.01649999999999997 -0.175 -0.02  -0.01650000000000003 -0.175 -0.02  0.08036352079666889 -0.1940147018273702 -0.09000000000000001  0.05357568053111261 -0.1293431345515801 -0.09000000000000001  0.07777983262274436 -0.1164057457223563 -0.09000000000000001  0.1166697489341165 -0.1746086185835345 -0.09000000000000001  0.08036352079666889 -0.1940147018273702 -0.02  0.07328387729791473 -0.1769229304759114 -0.02  0.06065532402986677 -0.1464349059030389 -0.02  0.05357568053111261 -0.1293431345515801 -0.02  0.1166697489341165 -0.1746086185835345 -0.02  0.07777983262274431 -0.1164057457223564 -0.02  0.08221361295032698 -0.1553646415554512 -0.02  0.05172558837745452 -0.1679931948234991 -0.02  0.1484924240491749 -0.148492424049175 -0.09000000000000001  0.09899494936611664 -0.09899494936611669 -0.09000000000000001  0.1164057457223563 -0.0777798326227444 -0.09000000000000001  0.1746086185835344 -0.1166697489341166 -0.09000000000000001  0.1484924240491749 -0.148492424049175 -0.02  0.1354109485972238 -0.1354109485972239 -0.02  0.1120764248180678 -0.1120764248180678 -0.02  0.09899494936611664 -0.09899494936611669 -0.02  0.1746086185835344 -0.1166697489341166 -0.02  0.1164057457223562 -0.07777983262274449 -0.02  0.1354109485972238 -0.1120764248180678 -0.02  0.1120764248180677 -0.1354109485972239 -0.02  0.1940147018273702 -0.08036352079666897 -0.09000000000000001  0.1293431345515801 -0.05357568053111266 -0.09000000000000001  0.1940147018273702 -0.08036352079666897 -0.02  0.1769229304759114 -0.07328387729791482 -0.02  0.1464349059030389 -0.06065532402986683 -0.02  0.1293431345515801 -0.05357568053111266 -0.02  0.1679931948234991 -0.05172558837745458 -0.02  0.1553646415554512 -0.08221361295032703 -0.02  0.1915 0 -0.006  0.175 0.0165 -0.006  0.1585 0 -0.006  0.18445 0 -0.006  0.175 0.00945 -0.006  0.16555 0 -0.006  0.175 -0.0165 -0.006  0.175 -0.00945 -0.006  0.1769229304759114 0.07328387729791469 -0.006  0.1704095797717068 0.07058595909974082 -0.006  0.1529482566072435 0.06335324222804062 -0.006  0.146434905903039 0.06065532402986673 -0.006  0.1553646415554512 0.082213612950
[...]
<PointData  Vectors="f_281"> 
<DataArray  type="Float64"  Name="f_281"  NumberOfComponents="3" format="ascii">-2.2437198307288650e+01 3.2092480103426162e+00 0.0000000000000000e+00  -2.2712948253733973e+01 3.2363435831871463e+00 0.0000000000000000e+00  -2.3711455549227534e+01 1.5534125400765040e+00 0.0000000000000000e+00  -2.4011921700026985e+01 1.5544722399110478e+00 0.0000000000000000e+00  -2.0363905855919771e+01 4.0163986056414318e+00 0.0000000000000000e+00  -2.0579312398277253e+01 4.0596695128272913e+00 0.0000000000000000e+00  -2.2031137960636535e+01 2.3611357680745995e+00 0.0000000000000000e+00  -2.2593171000987528e+01 2.2358233243817232e+00 0.0000000000000000e+00  -1.8168714426691135e+01 4.9287259696487791e+00 0.0000000000000000e+00  -1.8505437495401953e+01 4.4489376268519099e+00 0.0000000000000000e+00  -1.7997363901382649e+01 4.9329171045560258e+00 0.0000000000000000e+00  -2.0309605283909971e+01 4.7374210067804237e+00 0.0000000000000000e+00  -2.0569594965857487e+01 4.7813845579342136e+00 0.0000000000000000e+00  -1.9243414008913163e+01 5.1686147126427269e+00 0.0000000000000000e+00  -1.8738828271696054e+01 5.1966771951851021e+00 0.0000000000000000e+00  -1.7338426662912113e+01 5.4618870627243323e+00 0.0000000000000000e+00  -2.4359523771291652e+01 -1.7311227371170870e-01 0.0000000000000000e+00  -2.4065571100398866e+01 -1.5809223801476918e-01 0.0000000000000000e+00  -2.3503191252919279e+01 -1.8691427188592005e+00 0.0000000000000000e+00  -2.3798417309097868e+01 -1.9112136971826972e+00 0.0000000000000000e+00  -2.2249655466245152e+01 1.0262325164045698e+00 0.0000000000000000e+00  -1.9857335095162238e+01 2.3166365711258861e+00 0.0000000000000000e+00  -1.9676388516330594e+01 2.3488055171906272e+00 0.0000000000000000e+00  -2.2016086288031989e+01 1.0149692885870658e+00 0.0000000000000000e+00  -2.2503141847435419e+01 -1.0394337769919115e+00 0.0000000000000000e+00  -2.1969079793616590e+01 -8.3580185545489960e-01 0.0000000000000000e+00  -1.9587497505190385e+01 1.8159731802702426e+00 0.0000000000000000e+00  -1.9614493870706141e+01 2.9523810318871084e+00 0.0000000000000000e+00  -2.2296537409561296e+01 -3.5577338286544271e+00 0.0000000000000000e+00  -2.2029296590975367e+01 -3.5028637863032914e+00 0.0000000000000000e+00  -1.9715842569303305e+01 -5.0080688192259180e+00 0.0000000000000000e+00  -1.9960752235836821e+01 -5.0868788074316305e+00 0.0000000000000000e+00  -2.0530314993889906e+01 -2.1647319782742529e+00 0.0000000000000000e+00  -1.8517990933238014e+01 -6.4894865003710922e-01 0.0000000000000000e+00  -1.8353454420957632e+01 -5.9173353557200659e-01 0.0000000000000000e+00  -2.0314386735727830e+01 -2.1420649953503683e+00 0.0000000000000000e+00  -1.8985819631253619e+01 -4.1574067690411605e+00 0.0000000000000000e+00  -1.8561150796777468e+01 -3.9064245959842023e+00 0.0000000000000000e+00  -1.7684522896908721e+01 -1.0945848278001316e+00 0.0000000000000000e+00  -1.8900230416681310e+01 -7.6379989627018930e-03 0.0000000000000000e+00  -1.6838469060409668e+01 -6.4010369067343982e+00 0.0000000000000000e+00  -1.6638675803677266e+01 -6.3146734555521604e+00 0.0000000000000000e+00  -1.2926751805817926e+01 -7.3842133969431210e+00 0.0000000000000000e+00  -1.3084059582998481e+01 -7.4877030041455086e+00 0.0000000000000000e+00  -1.5684872108933190e+01 -5.0266438799413917e+00 0.0000000000000000e+00  -1.4359808763241624e+01 -3.5173818953060567e+00 0.0000000000000000e+00  -1.4240420441772468e+01 -3.4457705835984274e+00 0.0000000000000000e+00  -1.5519923988414766e+01 -4.9737095552046897e+00 0.0000000000000000e+00  -1.2577978562085285e+01 -6.6419081035847940e+00 0.0000000000000000e+00  -1.2327513629985322e+01 -6.3819125452144423e+00 0.0000000000000000e+00  -1.3088781290296026e+01 -3.8389279693852263e+00 0.0000000000000000e+00  -1.5308682535635919e+01 -2.9678955160378466e+00 0.0000000000000000e+00  -8.8170432046288649e+00 -8.2688561008873460e+00 0.0000000000000000e+00  -8.7150874401133454e+00 -8.1642641934341125e+00 0.0000000000000000e+00  -4.1699855482274311e+00 -8.6351439727188488e+00 0.0000000000000000e+00  -4.2157790543755400e+00 -8.7474671485506050e+00 0.0000000000000000e+00  -8.4517353394013917e+00 -7.1215376094334761e+00 0.0000000000000000e+00  -8.0142108776194956e+00 -5.8459745065250148e+00 0.0000000000000000e+00  -7.9584177458362912e+00 -5.7712335112417801e+00 0.0000000000000000e+00  -8.3628870205138579e+00 -7.0466577510818897e+00 0.0000000000000000e+00  -4.2556154062168590e+00 -8.1138534438850360e+00 0.0000000000000000e+00  -4.2174233668316479e+00 -7.8845231661281003e+00 0.0000000000000000e+00  -6.5008345236331166e+00 -5.9963060213716117e+00 0.0000000000000000e+00  -9.3866744976523258e+00 -5.4743689849858361e+00 0.0000000000000000e+00  5.4625730444660980e-01 -8.8768672975482392e+00 0.0000000000000000e+00  5.3490642807818956e-01 -8.7700005920520301e+00 0.0000000000000000e+00  5.2212898422696394e+00 -8.5707403541587261e+00 0.0000000000000000e+00  5.2939105193700957e+00 -8.6747999306602459e+00 0.0000000000000000e+00  6.7502651728999705e-02 -8.1314402168901765e+00 0.0000000000000000e+00  -4.4992292018346058e-01 -7.2850330771948082e+00 0.0000000000000000e+00  -4.6532050417972548e-01 -7.2195529157036722e+00 0.0000000000000000e+00  6.6917075540804505e-02 -8.0461077877111666e+00 0.0000000000000000e+00  4.7140011573185712e+00 -8.3499243013164577e+00 0.0000000000000000e+00  4.5342024390920619e+00 -8.1861355332620853e+00 0.0000000000000000e+00  1.0762114800159723e+00 -7.2401948760432742e+00 0.0000000000000000e+00  -2.0355708246725546e+00 -7.1456860230673813e+00 0.0000000000000000e+00  9.8262679780120568e+00 -8.1329759234863328e+00 0.0000000000000000e+00  9.7034002640467207e+00 -8.0401041856676478e+00 0.0000000000000000e+00  1.3818072659100357e+01 -7.2013484949570836e+00 0.0000000000000000e+00  1.3998069561181726e+01 -7.2812612268093986e+00 0.0000000000000000e+00  8.5758793889051290e+00 -7.9030005203435234e+00 0.0000000000000000e+00  7.1813690996322812e+00 -7.6143856784317832e+00 0.0000000000000000e+00  7.0981980570628096e+00 -7.5664433104160151e+00 0.0000000000000000e+00  8.4861467004086890e+00 -7.8199357607153672e+00 0.0000000000000000e+00  1.2966368957095179e+01 -7.3144373215497041e+00 0.0000000000000000e+00  1.2595847108762481e+01 -7.2411020659418650e+00 0.0000000000000000e+00  8.4884770231986231e+00 -7.3814751758089958e+00 0.0000000000000000e+00  5.6233545789041903e+00 -7.7288929413484810e+00 0.0000000000000000e+00  1.7611295317998795e+01 -6.1511521279289516e+00 0.0000000000000000e+00  1.7395502927366902e+01 -6.0864833792779773e+00 0.0000000000000000e+00  2.0312232585817970e+01 -4.7366081721432911e+00 0.0000000000000000e+00  2.0572382954826853e+01 -4.7801704434095624e+00 0.0000000000000000e+00  1.5780064784021468e+01 -6.4711623054474883e+00 0.0000000000000000e+00  1.3722118864059748e+01 -6.7838429176885491e+00 0.0000000000000000e+00  1.3580936945931487e+01 -6.7609596674111998e+00 0.0000000000000000e+00  1.5614385406034852e+01 -6.4031977572603092e+00 0.0000000000000000e+00  1.9246438608839423e+01 -5.1661790978155384e+00 0.0000000000000000e+00  1.8741340936719872e+01 -5.1945451718523810e+00 0.0000000000000000e+00  1.4610526122976394e+01 -6.3984710430944514e+00 0.0000000000000000e+00  1.2428699936548613e+01 -7.1347986862874615e+00 0.0000000000000000e+00  2.2716090882532868e+01 -3.2346290325144484e+00 0.0000000000000000e+00  2.2440065640728221e+01 -3.2079926640019250e+00 0.0000000000000000e+00  2.3714134258282055e+01 -1.5531266836700544e+00 0.0000000000000000e+00  2.4014747772368541e+01 -1.5537888242479789e+00 0.0000000000000000e+00  2.0584019281405645e+01 -4.0557870369300826e+00 0.0000000000000000e+00  1.8177691417921704e+01 -4.9217341959530767e+00 0.0000000000000000e+00  1.7998015398970775e+01 -4.9289914316718493e+00 0.0000000000000000e+00  2.0366816746867372e+01 -4.0135080637463751e+00 0.0000000000000000e+00  2.2596056538231668e+01 -2.2339113862830371e+00 0.0000000000000000e+00  2.2033405396693535e+01 -2.3595945426573652e+00 0.0000000000000000e+00  1.8510371445428628e+01 -4.4434940362824866e+00 0.0000000000000000e+00  1.7344083730095257e+01 -5.4561065776910436e+00 0.0000000000000000e+00  2.4361891477608896e+01 1.7147844455589367e-01 0.0000000000000000e+00  2.4067946930429287e+01 1.5616474411258283e-01 0.0000000000000000e+00  2.3505513017677927e+01 1.8640663822769010e+00 0.0000000000000000e+00  2.3800696214579375e+01 1.9062681247267457e+00 0.0000000000000000e+00  2.2251094742333166e+01 -1.0261442387466959e+00 0.0000000000000000e+00  1.9858494632501198e+01 -2.3141371040802716e+00 0.0000000000000000e+00  1.9674116750323613e+01 -2.3484352127953270e+00 0.0000000000000000e+00  2.2017151030031609e+01 -1.0154910602502754e+00 0.0000000000000000e+00  2.2504791716013774e+01 1.0354319382585471e+00 0.0000000000000000e+00  2.1970591912738424e+01 8.3181016468735514e-01 0.0000000000000000e+00  1.9588342931711843e+01 -1.8146156300781993e+00 0.0000000000000000e+00  1.9614929825368147e+01 -2.9495163041131955e+00 0.0000000000000000e+00  2.2299008702408102e+01 3.5489766461948933e+00 0.0000000000000000e+00  2.2031801487028780e+01 3.4941564449698701e+00 0.0000000000000000e+00  1.9718624444266872e+01 4.9957971610403202e+00 0.0000000000000000e+00  1.9963536936752714e+01 5.0743557256625325e+00 0.0000000000000000e+00  2.0531752396372990e+01 2.1569815482922996e+00 0.0000000000000000e+00  1.8517657867324239e+01 6.4195369800708812e-01 0.0000000000000000e+00  1.8355697446602974e+01 5.8664995272326992e-01 0.0000000000000000e+00  2.0316176085665496e+01 2.1345717863233844e+00 0.0000000000000000e+00  1.8987918497434048e+01 4.1451667314827345e+00 0.0000000000000000e+00  1.8563233907549446e+01 3.8945920669957839e+00 0.0000000000000000e+00  1.7684916145067149e+01 1.0869127356307107e+00 0.0000000000000000e+00  1.8901096579410154e+01 3.0030354684806439e-03 0.0000000000000000e+00  1.6841536506095434e+01 6.3855411916139273e+00 0.0000000000000000e+00  1.6641712094665060e+01 6.2995865325443807e+00 0.0000000000000000e+00  1.2929961320820542e+01 7.3676120610271862e+00 0.0000000000000000e+00  1.3087329584653229e+01 7.4706585712327760e+00 0.0000000000000000e+00  1.5686826961373095e+01 5.0108641298484127e+00 0.0000000000000000e+00  1.4359666250791784e+01 3.5004117141965119e+00 0.0000000000000000e+00  1.4241193434922335e+01 3.4300100480512059e+00 0.0000000000000000e+00  1.5521933214767454e+01 4.9585054580160888e+00 0.0000000000000000e+00  1.2580524655320618e+01 6.6248232387156456e+00 0.0000000000000000e+00  1.2329896490149899e+01 6.3653262373622868e+00 0.0000000000000000e+00  1.3089124168088800e+01 3.8220112436251985e+00 0.0000000000000000e+00  1.5309145678090935e+01 2.9528735448366059e+00 0.0000000000000000e+00  8.8203411250185741e+00 8.2517820138174063e+00 0.0000000000000000e+00  8.7183126040092045e+00 8.1475896917609525e+00 0.0000000000000000e+00  4.1730252052228236e+00 8.6196928554038905e+00 0.0000000000000000e+00  4.2188890125530163e+00 8.7317059751816917e+00 0.0000000000000000e+00  8.4540800968874414e+00 7.1046907440828608e+00 0.0000000000000000e+00  8.0152381922407194e+00 5.8290786532782315e+00 0.0000000000000000e+00  7.9599829416615488e+00 5.7559645319940760e+00 0.0000000000000000e+00  8.3652018879849468e+00 7.0303286149345903e+00 0.0000000000000000e+00  4.2581402225476426e+00 8.0984578498166808e+00 0.0000000000000000e+00  4.2198068766818206e+00 7.8695085490645980e+00 0.0000000000000000e+00  6.5017998492965541e+00 5.9801771831046748e+00 0.0000000000000000e+00  9.3875422502940467e+00 5.4573951132213319e+00 0.0000000000000000e+00  -5.4357782654757725e-01 8.8634614154153351e+00 0.0000000000000000e+00  -5.3225908391475785e-01 8.7567954348585992e+00 0.0000000000000000e+00  -5.2191301728962269e+00 8.5604774043938665e+00 0.0000000000000000e+00  -5.2918009475871113e+00 8.6644287854391742e+00 0.0000000000000000e+00  -6.5584595923784211e-02 8.1188805261113721e+00 0.0000000000000000e+00  4.5105998690297144e-01 7.2733389582723458e+00 0.0000000000000000e+00  4.6688489648356624e-01 7.2072545610502186e+00 0.0000000000000000e+00  -6.4982379933879966e-02 8.0335539638193332e+00 0.0000000000000000e+00  -4.7126230650478238e+00 8.3401033424698525e+00 0.0000000000000000e+00  -4.5327946322124326e+00 8.1764848979527667e+00 0.0000000000000000e+00  -1.0753040220237868e+00 7.2293595203701573e+00 0.0000000000000000e+00  2.0367813023974493e+00 7.1331482946182332e+00 0.0000000000000000e+00  -9.8245882348447751e+00 8.1260299334269259e+00 0.0000000000000000e+00  -9.7015928722085771e+00 8.0331491932420764e+00 0.0000000000000000e+00  -1.3816268828865919e+01 7.1976665876744228e+00 0.0000000000000000e+00  -1.3996368367384111e+01 7.2777278685837015e+00 0.0000000000000000e+00  -8.5756867594423252e+00 7.8969843238867004e+00 0.0000000000000000e+00  -7.1836509996069404e+00 7.6095151448867222e+00 0.0000000000000000e+00  -7.0980090812478958e+00 7.5610360612537786e+00 0.0000000000000000e+00  -8.4853919383175285e+00 7.8138260656635046e+00 0.0000000000000000e+00  -1.2965374290260957e+01 7.3117286848125573e+00 0.0000000000000000e+00  -1.2594830969328475e+01 7.2383768370932842e+00 0.0000000000000000e+00  -8.4894023216209824e+00 7.3775669344772448e+00 0.0000000000000000e+00  -5.6247939072553539e+00 7.7226897749050165e+00 0.0000000000000000e+00  -1.7609163471177823e+01 6.1505211288544963e+00 0.0000000000000000e+00  -1.7393357367508539e+01 6.0855523910814542e+00 0.0000000000000000e+00  -1.5778621386662886e+01 6.4721676191324118e+00 0.0000000000000000e+00  -1.3720886964863819e+01 6.7867171027491038e+00 0.0000000000000000e+00  -1.3580556434598972e+01 6.7634893504989595e+00 0.0000000000000000e+00  -1.5612960177707812e+01 6.4038110432360300e+00 0.0000000000000000e+00  -1.4609036921080911e+01 6.4020698982757667e+00 0.0000000000000000e+00  -1.2428047111639144e+01 7.1366740477961077e+00 0.0000000000000000e+00  -1.2763143867713326e+01 6.8924394349045679e+00 0.0000000000000000e+00  -1.2782991747176279e+01 6.8057729178625914e+00 0.0000000000000000e+00  -1.2673407875335393e+01 6.9090262143909431e+00 0.0000000000000000e+00  -9.0664052873809275e+00 8.1938436299352357e+00 0.0000000000000000e+00  -9.0218026419669197e+00 8.1905772690519658e+00 0.0000000000000000e+00  -8.9634261536845976e+00 8.2224458989809843e+00 0.0000000000000000e+00  -1.2453373329698316e+01 7.0620792528175089e+00 0.0000000000000000e+00  -8.7950980088650681e+00 8.3059615003955649e+00 0.0000000000000000e+00  -1.4499337001245355e+01 5.2230074241575064e+00 0.0000000000000000e+00  -1.0783013944328854e+01 7.1915907759873727e+00 0.0000000000000000e+00  -1.0709561996211495e+01 7.2219469855526111e+00 0.0000000000000000e+00  -1.4398551771846835e+01 5.2598021829959682e+00 0.0000000000000000e+00  -1.4347357399861201e+01 5.1405822740725053e+00 0.0000000000000000e+00  -1.0678951318668991e+01 7.1654305767781334e+00 0.0000000000000000e+00  -1.4344870549891528e+01 5.4474347750897669e+00 0.0000000000000000e+00  -1.0642037819642876e+01 7.3463642701176957e+00 0.0000000000000000e+00  -1.4012997078568077e+01 2.7603574406141087e+00 0.0000000000000000e+00  -1.0882768289008736e+01 5.0818181922425847e+00 0.0000000000000000e+00  -1.0893429883878500e+01 5.0659198305806221e+00 0.0000000000000000e+00  -1.3946153163863999e+01 2.7937796997951505e+00 0.0000000000000000e+00  -1.3723264644770406e+01 2.6913163874389276e+00 0.0000000000000000e+00  -1.0703601379341118e+01 5.0493090455202543e+00 0.0000000000000000e+00  -1.4041995809526268e+01 3.0035685782167141e+00 0.0000000000000000e+00  -1.0850791194091741e+01 5.2704153678171357e+00 0.0000000000000000e+00  -1.1375837278544680e+01 -1.0257038462054319e-01 0.0000000000000000e+00  -9.2929840784149711e+00 2.2335728163077375e+00 0.0000000000000000e+00  -9.3108727372689195e+00 2.2060559104822395e+00 0.0000000000000000e+00  -1.1350386255781551e+01 -8.8701168232997687e-02 0.0000000000000000e+00  -1.1007656716051317e+01 -1.6799553363683023e-01 0.0000000000000000e+00  -9.0951391102037249e+00 2.1646769953287581e+00 0.0000000000000000e+00  -1.1600597280646946e+01 1.0335290905714284e-01 0.0000000000000000e+00  -9.4131017852191654e+00 2.3888169012266984e+00 0.0000000000000000e+00  -7.0385329183730478e+00 -2.9795097029512467e+00 0.0000000000000000e+00  -6.3537602842067615e+00 -1.0315346085816330e+00 0.0000000000000000e+00  -6.3473583530582331e+00 -1.0243879704378815e+00 0.0000000000000000e+00  -7.0196478145071843e+00 -2.9482306762794743e+00 0.0000000000000000e+00  -6.6175397850342579e+00 -2.9976760512513088e+00 0.0000000000000000e+00  -6.1052165834908259e+00 -1.0451513888193580e+00 0.0000000000000000e+00  -7.3981292594770869e+00 -2.8130993675825686e+00 0.0000000000000000e+00  -6.5439815402761710e+00 -8.5339205084501979e-01 0.0000000000000000e+00  -1.6170495795903779e+00 -5.3885145825023661e+00 0.0000000000000000e+00  -2.4085219024167155e+00 -4.0713866894790849e+00 0.0000000000000000e+00  -2.4178953367636415e+00 -4.0476978852516154e+00 0.0000000000000000e+00  -1.6302527888966343e+00 -5.3532482897446618e+00 0.0000000000000000e+00  -1.2209448336008755e+00 -5.3707559929487374e+00 0.0000000000000000e+00  -2.1875197334107459e+00 -4.0970081817085813e+00 0.0000000000000000e+00  -2.0678851475052458e+00 -5.2975160476753240e+00 0.0000000000000000e+00  -2.6760688353914692e+00 -3.9622561669667404e+00 0.0000000000000000e+00  4.0541953760237064e+00 -6.9747401185372642e+00 0.0000000000000000e+00  1.8991459305433289e+00 -6.5113419517182747e+00 0.0000000000000000e+00  1.8603198447190437e+00 -6.4996382092883609e+00 0.0000000000000000e+00  4.0005442713158912e+00 -6.9555319994831457e+00 0.0000000000000000e+00  4.3598853106214772e+00 -6.9262447848299606e+00 0.0000000000000000e+00  2.0637978523595293e+00 -6.5251528502880545e+00 0.0000000000000000e+00  3.5745778594303430e+00 -6.9765582750391966e+00 0.0000000000000000e+00  1.5915491417943513e+00 -6.4671947531167850e+00 0.0000000000000000e+00  9.1077735440084293e+00 -7.4961636875311761e+00 0.0000000000000000e+00  5.9153336523203590e+00 -7.9558521313128523e+00 0.0000000000000000e+00  5.9003136675869241e+00 -7.9543345457286945e+00 0.0000000000000000e+00  9.0487322520318720e+00 -7.4936121107107896e+00 0.0000000000000000e+00  9.2799017261825547e+00 -7.4247914575885092e+00 0.0000000000000000e+00  6.0019775659620187e+00 -7.9551859026571998e+00 0.0000000000000000e+00  8.6734684212517390e+00 -7.5911686365842765e+00 0.0000000000000000e+00  5.6229184310032991e+00 -7.9865859269041879e+00 0.0000000000000000e+00  1.2750578408927272e+01 -6.8892045479900439e+00 0.0000000000000000e+00  8.9903629012997897e+00 -8.2099304696325337e+00 0.0000000000000000e+00  9.0544093706156801e+00 -8.1805585435249366e+00 0.0000000000000000e+00  1.2702671416077107e+01 -6.8911421038081446e+00 0.0000000000000000e+00  1.2791182899413959e+01 -6.7951949161858831e+00 0.0000000000000000e+00  9.0318495154973633e+00 -8.1768345311173682e+00 0.0000000000000000e+00  1.2457429029027816e+01 -7.0531778306526256e+00 0.0000000000000000e+00  8.8077153583758516e+00 -8.2920859427293649e+00 0.0000000000000000e+00  1.4498114075566491e+01 -5.2158583548712789e+00 0.0000000000000000e+00  1.0776136670593322e+01 -7.1830535942877853e+00 0.0000000000000000e+00  1.0751365598335262e+01 -7.1904723798374039e+00 0.0000000000000000e+00  1.4423988394407010e+01 -5.2399427387136432e+00 0.0000000000000000e+00  1.4348848585838837e+01 -5.1320693423497277e+00 0.0000000000000000e+00  1.0675304867170453e+01 -7.1557249843639266e+00 0.0000000000000000e+00  1.4336107822614398e+01 -5.4441190976796525e+00 0.0000000000000000e+00  1.0637181304502327e+01 -7.3373863622610562e+00 0.0000000000000000e+00  1.4006011767687356e+01 -2.7691699172411872e+00 0.0000000000000000e+00  1.0908588785124913e+01 -5.0624409970293769e+00 0.0000000000000000e+00  1.0861556868434871e+01 -5.0893254873293223e+00 0.0000000000000000e+00  1.3950913847915194e+01 -2.7937315629252990e+00 0.0000000000000000e+00  1.3725494667201904e+01 -2.6912798816642454e+00 0.0000000000000000e+00  1.0697421109781279e+01 -5.0517006707978949e+00 0.0000000000000000e+00  1.4036385560766385e+01 -3.0097863551105433e+00 0.0000000000000000e+00  1.0851585437925541e+01 -5.2701082090743832e+00 0.0000000000000