<?xml version="1.0"?>
<VTKFile type="UnstructuredGrid"  version="0.1"  >
<UnstructuredGrid>
<Piece  NumberOfPoints="4160" NumberOfCells="16142">
<Points>
<DataArray  type="Float64"  NumberOfComponents="3"  format="ascii">0.14 0 -0.09000000000000001  0.21 0 -0.09000000000000001  0.1373099392564523 0.02731264508225804 -0.09000000000000001  0.2059649088846784 0.04096896762338705 -0.09000000000000001  0.14 0 -0.02  0.21 0 -0.02  0.1373099392564523 0.02731264508225797 -0.02  0.2059649088846784 0.04096896762338705 -0.02  0.1915 0 -0.02  0.175 0.0165 -0.02  0.1585 0 -0.02  0.1373099392564523 -0.02731264508225797 -0.09000000000000001  0.2059649088846784 -0.04096896762338696 -0.09000000000000001  0.2059649088846784 -0.04096896762338696 -0.02  0.1373099392564523 -0.02731264508225805 -0.02  0.175 -0.0165 -0.02  0.1940147018273702 0.08036352079666885 -0.09000000000000001  0.1293431345515802 0.05357568053111257 -0.09000000000000001  0.1164057457223563 0.07777983262274438 -0.09000000000000001  0.1746086185835344 0.1166697489341166 -0.09000000000000001  0.1940147018273702 0.08036352079666885 -0.02  0.1769229304759114 0.07328387729791469 -0.02  0.146434905903039 0.06065532402986673 -0.02  0.1293431345515802 0.05357568053111257 -0.02  0.1746086185835344 0.1166697489341166 -0.02  0.1164057457223564 0.07777983262274432 -0.02  0.1553646415554512 0.08221361295032695 -0.02  0.1679931948234991 0.05172558837745448 -0.02  0.148492424049175 0.148492424049175 -0.09000000000000001  0.09899494936611666 0.09899494936611665 -0.09000000000000001  0.07777983262274425 0.1164057457223564 -0.09000000000000001  0.1166697489341164 0.1746086185835346 -0.09000000000000001  0.148492424049175 0.148492424049175 -0.02  0.1354109485972239 0.1354109485972238 -0.02  0.1120764248180678 0.1120764248180678 -0.02  0.09899494936611666 0.09899494936611665 -0.02  0.1166697489341164 0.1746086185835346 -0.02  0.07777983262274432 0.1164057457223564 -0.02  0.1120764248180678 0.1354109485972238 -0.02  0.1354109485972239 0.1120764248180678 -0.02  0.08036352079666885 0.1940147018273702 -0.09000000000000001  0.05357568053111257 0.1293431345515802 -0.09000000000000001  0.02731264508225788 0.1373099392564523 -0.09000000000000001  0.04096896762338683 0.2059649088846784 -0.09000000000000001  0.08036352079666885 0.1940147018273702 -0.02  0.07328387729791469 0.1769229304759114 -0.02  0.06065532402986673 0.146434905903039 -0.02  0.05357568053111257 0.1293431345515802 -0.02  0.04096896762338683 0.2059649088846784 -0.02  0.02731264508225797 0.1373099392564523 -0.02  0.05172558837745448 0.1679931948234991 -0.02  0.08221361295032695 0.1553646415554512 -0.02  1.285879139104721e-17 0.21 -0.09000000000000001  8.572527594031473e-18 0.14 -0.09000000000000001  -0.02731264508225804 0.1373099392564522 -0.09000000000000001  -0.04096896762338704 0.2059649088846784 -0.09000000000000001  1.285879139104721e-17 0.21 -0.02  1.172599310183591e-17 0.1915 -0.02  9.705325883242774e-18 0.1585 -0.02  8.572527594031473e-18 0.14 -0.02  -0.04096896762338704 0.2059649088846784 -0.02  -0.02731264508225796 0.1373099392564523 -0.02  -0.01649999999999999 0.175 -0.02  0.01650000000000001 0.175 -0.02  -0.08036352079666884 0.1940147018273702 -0.09000000000000001  -0.05357568053111256 0.1293431345515802 -0.09000000000000001  -0.07777983262274438 0.1164057457223563 -0.09000000000000001  -0.1166697489341166 0.1746086185835344 -0.09000000000000001  -0.08036352079666884 0.1940147018273702 -0.02  -0.07328387729791469 0.1769229304759114 -0.02  -0.06065532402986672 0.146434905903039 -0.02  -0.05357568053111256 0.1293431345515802 -0.02  -0.1166697489341166 0.1746086185835344 -0.02  -0.07777983262274432 0.1164057457223564 -0.02  -0.08221361295032693 0.1553646415554512 -0.02  -0.05172558837745447 0.1679931948234991 -0.02  -0.148492424049175 0.148492424049175 -0.09000000000000001  -0.09899494936611665 0.09899494936611666 -0.09000000000000001  -0.1164057457223564 0.07777983262274427 -0.09000000000000001  -0.1746086185835345 0.1166697489341164 -0.09000000000000001  -0.148492424049175 0.148492424049175 -0.02  -0.1354109485972238 0.1354109485972239 -0.02  -0.1120764248180678 0.1120764248180678 -0.02  -0.09899494936611665 0.09899494936611666 -0.02  -0.1746086185835345 0.1166697489341164 -0.02  -0.1164057457223563 0.07777983262274435 -0.02  -0.1354109485972238 0.1120764248180678 -0.02  -0.1120764248180678 0.1354109485972239 -0.02  -0.1940147018273702 0.08036352079666888 -0.09000000000000001  -0.1293431345515802 0.05357568053111259 -0.09000000000000001  -0.1373099392564523 0.02731264508225789 -0.09000000000000001  -0.2059649088846784 0.04096896762338684 -0.09000000000000001  -0.1940147018273702 0.08036352079666888 -0.02  -0.1769229304759114 0.07328387729791472 -0.02  -0.146434905903039 0.06065532402986675 -0.02  -0.1293431345515802 0.05357568053111259 -0.02  -0.2059649088846784 0.04096896762338684 -0.02  -0.1373099392564523 0.02731264508225798 -0.02  -0.1679931948234991 0.05172558837745449 -0.02  -0.1553646415554512 0.08221361295032696 -0.02  -0.21 2.571758278209441e-17 -0.09000000000000001  -0.14 1.714505518806294e-17 -0.09000000000000001  -0.1373099392564523 -0.02731264508225804 -0.09000000000000001  -0.2059649088846784 -0.04096896762338704 -0.09000000000000001  -0.21 2.571758278209441e-17 -0.02  -0.1915 2.345198620367181e-17 -0.02  -0.1585 1.941065176648555e-17 -0.02  -0.14 1.714505518806294e-17 -0.02  -0.2059649088846784 -0.04096896762338704 -0.02  -0.1373099392564523 -0.02731264508225796 -0.02  -0.175 -0.01649999999999998 -0.02  -0.175 0.01650000000000002 -0.02  -0.1940147018273702 -0.08036352079666884 -0.09000000000000001  -0.1293431345515802 -0.05357568053111256 -0.09000000000000001  -0.1164057457223563 -0.07777983262274438 -0.09000000000000001  -0.1746086185835345 -0.1166697489341165 -0.09000000000000001  -0.1940147018273702 -0.08036352079666884 -0.02  -0.1769229304759114 -0.07328387729791469 -0.02  -0.146434905903039 -0.06065532402986672 -0.02  -0.1293431345515802 -0.05357568053111256 -0.02  -0.1746086185835345 -0.1166697489341165 -0.02  -0.1164057457223564 -0.07777983262274432 -0.02  -0.1553646415554512 -0.08221361295032693 -0.02  -0.1679931948234992 -0.05172558837745446 -0.02  -0.148492424049175 -0.148492424049175 -0.09000000000000001  -0.09899494936611669 -0.09899494936611665 -0.09000000000000001  -0.07777983262274432 -0.1164057457223563 -0.09000000000000001  -0.1166697489341165 -0.1746086185835345 -0.09000000000000001  -0.148492424049175 -0.148492424049175 -0.02  -0.1354109485972239 -0.1354109485972238 -0.02  -0.1120764248180678 -0.1120764248180678 -0.02  -0.09899494936611669 -0.09899494936611665 -0.02  -0.1166697489341165 -0.1746086185835345 -0.02  -0.07777983262274439 -0.1164057457223563 -0.02  -0.1120764248180678 -0.1354109485972238 -0.02  -0.1354109485972239 -0.1120764248180678 -0.02  -0.08036352079666896 -0.1940147018273702 -0.09000000000000001  -0.05357568053111265 -0.1293431345515801 -0.09000000000000001  -0.0273126450822579 -0.1373099392564523 -0.09000000000000001  -0.04096896762338685 -0.2059649088846784 -0.09000000000000001  -0.08036352079666896 -0.1940147018273702 -0.02  -0.07328387729791479 -0.1769229304759114 -0.02  -0.06065532402986681 -0.1464349059030389 -0.02  -0.05357568053111265 -0.1293431345515801 -0.02  -0.04096896762338685 -0.2059649088846784 -0.02  -0.02731264508225799 -0.1373099392564523 -0.02  -0.05172558837745456 -0.1679931948234991 -0.02  -0.08221361295032702 -0.1553646415554512 -0.02  -3.857637417314163e-17 -0.21 -0.09000000000000001  -2.571758278209442e-17 -0.14 -0.09000000000000001  0.02731264508225808 -0.1373099392564523 -0.09000000000000001  0.04096896762338711 -0.2059649088846784 -0.09000000000000001  -3.857637417314163e-17 -0.21 -0.02  -3.517797930550773e-17 -0.1915 -0.02  -2.911597764972832e-17 -0.1585 -0.02  -2.571758278209442e-17 -0.14 -0.02  0.04096896762338711 -0.2059649088846784 -0.02  0.027312645082258 -0.1373099392564523 -0.02  0.01649999999999997 -0.175 -0.02  -0.01650000000000003 -0.175 -0.02  0.08036352079666889 -0.1940147018273702 -0.09000000000000001  0.05357568053111261 -0.1293431345515801 -0.09000000000000001  0.07777983262274436 -0.1164057457223563 -0.09000000000000001  0.1166697489341165 -0.1746086185835345 -0.09000000000000001  0.08036352079666889 -0.1940147018273702 -0.02  0.07328387729791473 -0.1769229304759114 -0.02  0.06065532402986677 -0.1464349059030389 -0.02  0.05357568053111261 -0.1293431345515801 -0.02  0.1166697489341165 -0.1746086185835345 -0.02  0.07777983262274431 -0.1164057457223564 -0.02  0.08221361295032698 -0.1553646415554512 -0.02  0.05172558837745452 -0.1679931948234991 -0.02  0.1484924240491749 -0.148492424049175 -0.09000000000000001  0.09899494936611664 -0.09899494936611669 -0.09000000000000001  0.1164057457223563 -0.0777798326227444 -0.09000000000000001  0.1746086185835344 -0.1166697489341166 -0.09000000000000001  0.1484924240491749 -0.148492424049175 -0.02  0.1354109485972238 -0.1354109485972239 -0.02  0.1120764248180678 -0.1120764248180678 -0.02  0.09899494936611664 -0.09899494936611669 -0.02  0.1746086185835344 -0.1166697489341166 -0.02  0.1164057457223562 -0.07777983262274449 -0.02  0.1354109485972238 -0.1120764248180678 -0.02  0.1120764248180677 -0.1354109485972239 -0.02  0.1940147018273702 -0.08036352079666897 -0.09000000000000001  0.1293431345515801 -0.05357568053111266 -0.09000000000000001  0.1940147018273702 -0.08036352079666897 -0.02  0.1769229304759114 -0.07328387729791482 -0.02  0.1464349059030389 -0.06065532402986683 -0.02  0.1293431345515801 -0.05357568053111266 -0.02  0.1679931948234991 -0.05172558837745458 -0.02  0.1553646415554512 -0.08221361295032703 -0.02  0.1915 0 -0.006  0.175 0.0165 -0.006  0.1585 0 -0.006  0.18445 0 -0.006  0.175 0.00945 -0.006  0.16555 0 -0.006  0.175 -0.0165 -0.006  0.175 -0.00945 -0.006  0.1769229304759114 0.07328387729791469 -0.006  0.1704095797717068 0.07058595909974082 -0.006  0.1529482566072435 0.06335324222804062 -0.006  0.146434905903039 0.06065532402986673 -0.006  0.1553646415554512 0.082213612950
[...]
<PointData  Vectors="f_329"> 
<DataArray  type="Float64"  Name="f_329"  NumberOfComponents="3" format="ascii">-7.5602776686138900e-04 -4.5883145365858925e-05 0.0000000000000000e+00  -7.6540176096041249e-04 -4.5778375740593269e-05 0.0000000000000000e+00  -8.1305767462548769e-04 -2.0633151376361479e-04 0.0000000000000000e+00  -8.2375688745785723e-04 -2.0790447495860675e-04 0.0000000000000000e+00  -7.0209187992369322e-04 -5.1032597562919511e-05 0.0000000000000000e+00  -7.0794477830972511e-04 -5.4973848855818363e-05 0.0000000000000000e+00  -7.6105012715365131e-04 -2.0767532825894828e-04 0.0000000000000000e+00  -7.7796663017979436e-04 -2.1157483895947792e-04 0.0000000000000000e+00  -6.7808934690925121e-04 1.0151476288101967e-05 0.0000000000000000e+00  -6.9823103646992290e-04 -3.4701504740101432e-05 0.0000000000000000e+00  -6.7743917541638124e-04 2.0219268196604008e-05 0.0000000000000000e+00  -6.7040533196931489e-04 1.1687407070723888e-04 0.0000000000000000e+00  -6.7884579286304429e-04 1.1925716008977846e-04 0.0000000000000000e+00  -6.4615214350923292e-04 1.0134960097246643e-04 0.0000000000000000e+00  -6.3233837291797588e-04 9.8629996123765159e-05 0.0000000000000000e+00  -6.5236281832173500e-04 7.4413900330986855e-05 0.0000000000000000e+00  -8.4891858002982424e-04 -3.6298738832254540e-04 0.0000000000000000e+00  -8.3824525307955942e-04 -3.5929645188576090e-04 0.0000000000000000e+00  -8.3195089756984779e-04 -4.9802506943153282e-04 0.0000000000000000e+00  -8.4328370429288509e-04 -5.0331111539700108e-04 0.0000000000000000e+00  -7.8010515521845800e-04 -3.5005747509468839e-04 0.0000000000000000e+00  -7.7285139374124628e-04 -2.6411085200349837e-04 0.0000000000000000e+00  -7.7614807637425712e-04 -2.5242889509933202e-04 0.0000000000000000e+00  -7.7505171802375505e-04 -3.4320851251349368e-04 0.0000000000000000e+00  -7.9136709603152015e-04 -4.9219058790002401e-04 0.0000000000000000e+00  -7.7391597824672670e-04 -4.8226224385905362e-04 0.0000000000000000e+00  -7.7579391125334827e-04 -3.0095458046457818e-04 0.0000000000000000e+00  -7.7136425717045005e-04 -2.0299462075474715e-04 0.0000000000000000e+00  -8.0322398678487836e-04 -6.2483884459117994e-04 0.0000000000000000e+00  -7.9286799389146527e-04 -6.1792077024617413e-04 0.0000000000000000e+00  -7.2420654640000285e-04 -7.1383817717430393e-04 0.0000000000000000e+00  -7.3447293300357307e-04 -7.2202105487595327e-04 0.0000000000000000e+00  -7.3349978997189181e-04 -5.9175509961446209e-04 0.0000000000000000e+00  -7.4984669511524377e-04 -4.9812519020257437e-04 0.0000000000000000e+00  -7.5652088923233956e-04 -4.8653061051253494e-04 0.0000000000000000e+00  -7.2999343132421166e-04 -5.8304226759132581e-04 0.0000000000000000e+00  -6.8441588381197322e-04 -6.9777144206725923e-04 0.0000000000000000e+00  -6.6896163009991922e-04 -6.8336796115833851e-04 0.0000000000000000e+00  -7.3521476264956924e-04 -5.2133087037709101e-04 0.0000000000000000e+00  -7.7281113225796856e-04 -4.4945728155439027e-04 0.0000000000000000e+00  -6.3526208389664217e-04 -7.9154780978169426e-04 0.0000000000000000e+00  -6.2678144969009373e-04 -7.8246122023595732e-04 0.0000000000000000e+00  -5.0614807074254235e-04 -8.2102985475876076e-04 0.0000000000000000e+00  -5.1376902911605860e-04 -8.3087736688952467e-04 0.0000000000000000e+00  -5.7526005075910999e-04 -7.4334257327768869e-04 0.0000000000000000e+00  -6.1130308652268702e-04 -6.5677953228194294e-04 0.0000000000000000e+00  -6.2216962978823794e-04 -6.4655571514177007e-04 0.0000000000000000e+00  -5.7389003810252328e-04 -7.3408225920300633e-04 0.0000000000000000e+00  -4.7314161408592030e-04 -7.9722962025557855e-04 0.0000000000000000e+00  -4.6217262237739794e-04 -7.8047168471995112e-04 0.0000000000000000e+00  -5.8283206785109966e-04 -6.6233588911717778e-04 0.0000000000000000e+00  -6.5504997907921201e-04 -6.2798052196043894e-04 0.0000000000000000e+00  -3.7043571881143259e-04 -8.3787859949488604e-04 0.0000000000000000e+00  -3.6514799596528780e-04 -8.2798811361113221e-04 0.0000000000000000e+00  -2.1087931471939071e-04 -8.0335678424383770e-04 0.0000000000000000e+00  -2.1467986609145735e-04 -8.1337897417948146e-04 0.0000000000000000e+00  -3.2928637289997688e-04 -7.8189205550707546e-04 0.0000000000000000e+00  -3.8082565751141196e-04 -7.1471975629201572e-04 0.0000000000000000e+00  -3.9271555528206119e-04 -7.0833486559387113e-04 0.0000000000000000e+00  -3.3025110290251951e-04 -7.7350266292217887e-04 0.0000000000000000e+00  -1.8964372693983946e-04 -7.7546380870240007e-04 0.0000000000000000e+00  -1.8482640240579870e-04 -7.5891017719212676e-04 0.0000000000000000e+00  -3.4151206849272905e-04 -7.0268894030982808e-04 0.0000000000000000e+00  -4.3902702689151455e-04 -7.1014661816036408e-04 0.0000000000000000e+00  -4.9060528052591529e-05 -7.5676766205293817e-04 0.0000000000000000e+00  -4.7780195865583823e-05 -7.4757836461476507e-04 0.0000000000000000e+00  1.1660713943606720e-04 -6.6346727602183283e-04 0.0000000000000000e+00  1.1721781346114878e-04 -6.7212932383231127e-04 0.0000000000000000e+00  -3.3017831148480917e-05 -7.0152518446683269e-04 0.0000000000000000e+00  -9.2236600786896187e-05 -6.6401707346326068e-04 0.0000000000000000e+00  -1.0330987057707115e-04 -6.6252431773859222e-04 0.0000000000000000e+00  -3.6179546277448685e-05 -6.9530057026925655e-04 0.0000000000000000e+00  1.2288420762219534e-04 -6.3567270187787081e-04 0.0000000000000000e+00  1.2076831436201525e-04 -6.2189657678380738e-04 0.0000000000000000e+00  -4.8001599020141964e-05 -6.3617683502537243e-04 0.0000000000000000e+00  -1.5586075115874969e-04 -6.8429409344045265e-04 0.0000000000000000e+00  2.7985185705575104e-04 -5.6050306538421796e-04 0.0000000000000000e+00  2.7692531947687597e-04 -5.5341837210002057e-04 0.0000000000000000e+00  4.2633826915228245e-04 -4.2262343594827510e-04 0.0000000000000000e+00  4.3124616339378612e-04 -4.2862462548464618e-04 0.0000000000000000e+00  2.6834386921240771e-04 -5.1439302086276153e-04 0.0000000000000000e+00  2.0980915789386704e-04 -5.1292648111398256e-04 0.0000000000000000e+00  2.0202371355455340e-04 -5.1563368145925940e-04 0.0000000000000000e+00  2.6349921676103918e-04 -5.1124023015785213e-04 0.0000000000000000e+00  4.1661169636051266e-04 -3.9924006521359253e-04 0.0000000000000000e+00  4.0799019036118748e-04 -3.9021687200879924e-04 0.0000000000000000e+00  2.5288245812175164e-04 -4.7275774470829939e-04 0.0000000000000000e+00  1.5034128242643653e-04 -5.5506789385030412e-04 0.0000000000000000e+00  5.6608266222110085e-04 -2.7896060647285270e-04 0.0000000000000000e+00  5.5942053555904073e-04 -2.7504499357979039e-04 0.0000000000000000e+00  6.7111418200342763e-04 -1.1744215384759519e-04 0.0000000000000000e+00  6.7957104396832823e-04 -1.1985316662143763e-04 0.0000000000000000e+00  5.2873299099074993e-04 -2.4901479962035602e-04 0.0000000000000000e+00  4.8096652856055686e-04 -2.8254583990775650e-04 0.0000000000000000e+00  4.7624117472653665e-04 -2.9055294093517290e-04 0.0000000000000000e+00  5.2292943097573621e-04 -2.4944923135040905e-04 0.0000000000000000e+00  6.4686205926015223e-04 -1.0192810309397486e-04 0.0000000000000000e+00  6.3301316304158455e-04 -9.9183963590385139e-05 0.0000000000000000e+00  5.1505008095259399e-04 -2.3754182643838717e-04 0.0000000000000000e+00  4.3486170478624443e-04 -3.4002180156635884e-04 0.0000000000000000e+00  7.6611772061665551e-04 4.5105434557430929e-05 0.0000000000000000e+00  7.5672060773202693e-04 4.5241851374023319e-05 0.0000000000000000e+00  8.1368678923068134e-04 2.0569325031072442e-04 0.0000000000000000e+00  8.2440969490629073e-04 2.0723449941240031e-04 0.0000000000000000e+00  7.0866977210128795e-04 5.4333095854636507e-05 0.0000000000000000e+00  6.7835582498138123e-04 -9.7569587214514902e-06 0.0000000000000000e+00  6.7814147684177760e-04 -2.1209535192498886e-05 0.0000000000000000e+00  7.0278423209775944e-04 5.0346099335789372e-05 0.0000000000000000e+00  7.7861036091340572e-04 2.1091473880182769e-04 0.0000000000000000e+00  7.6164985593764399e-04 2.0703775669974760e-04 0.0000000000000000e+00  6.9896818328307958e-04 3.3815503212187496e-05 0.0000000000000000e+00  6.5296531587501466e-04 -7.4880271966836409e-05 0.0000000000000000e+00  8.4946830283779296e-04 3.6239586307283445e-04 0.0000000000000000e+00  8.3876803333566663e-04 3.5873949950662796e-04 0.0000000000000000e+00  8.3233031296042542e-04 4.9761919479514869e-04 0.0000000000000000e+00  8.4368559048932697e-04 5.0287875143671917e-04 0.0000000000000000e+00  7.8062469404044496e-04 3.4947685183155022e-04 0.0000000000000000e+00  7.7232371420373565e-04 2.6449202179674915e-04 0.0000000000000000e+00  7.7667628765958898e-04 2.5161375392686119e-04 0.0000000000000000e+00  7.7555593219430692e-04 3.4262429170366294e-04 0.0000000000000000e+00  7.9180794751906294e-04 4.9171382203370430e-04 0.0000000000000000e+00  7.7425021352502815e-04 4.8187384317841859e-04 0.0000000000000000e+00  7.7547527281348889e-04 3.0110559928294713e-04 0.0000000000000000e+00  7.7152056194390107e-04 2.0265536606465921e-04 0.0000000000000000e+00  8.0343606703379565e-04 6.2462148357823888e-04 0.0000000000000000e+00  7.9308161442789415e-04 6.1770658088040149e-04 0.0000000000000000e+00  7.2425287426834976e-04 7.1381412488680034e-04 0.0000000000000000e+00  7.3448672904006607e-04 7.2201410852555117e-04 0.0000000000000000e+00  7.3369512649590059e-04 5.9154958725439585e-04 0.0000000000000000e+00  7.4996580749758595e-04 4.9782972816825679e-04 0.0000000000000000e+00  7.5672547146799418e-04 4.8627572045820404e-04 0.0000000000000000e+00  7.3019513076464195e-04 5.8284323593273590e-04 0.0000000000000000e+00  6.8432857154721114e-04 6.9780397545429187e-04 0.0000000000000000e+00  6.6900224444370728e-04 6.8334410240895275e-04 0.0000000000000000e+00  7.3579854562768937e-04 5.2080690575931929e-04 0.0000000000000000e+00  7.7253570850575903e-04 4.4939539259947019e-04 0.0000000000000000e+00  6.3513217699085638e-04 7.9170260122016071e-04 0.0000000000000000e+00  6.2669925295717407e-04 7.8259058615577528e-04 0.0000000000000000e+00  5.0601660057794727e-04 8.2124688433474658e-04 0.0000000000000000e+00  5.1358777926065343e-04 8.3111618025427767e-04 0.0000000000000000e+00  5.7507663753785930e-04 7.4351252410661303e-04 0.0000000000000000e+00  6.1254635889387767e-04 6.5632143539311812e-04 0.0000000000000000e+00  6.2177334197591682e-04 6.4661125850155583e-04 0.0000000000000000e+00  5.7372242944850479e-04 7.3422799288600221e-04 0.0000000000000000e+00  4.7283542621912538e-04 7.9748012036658491e-04 0.0000000000000000e+00  4.6198681684092878e-04 7.8068928879730084e-04 0.0000000000000000e+00  5.8308311352551362e-04 6.6220024234369779e-04 0.0000000000000000e+00  6.5603722987228434e-04 6.2758213195730696e-04 0.0000000000000000e+00  3.7029657599792014e-04 8.3813565616976679e-04 0.0000000000000000e+00  3.6505386627692883e-04 8.2822924347154803e-04 0.0000000000000000e+00  2.1089828242740395e-04 8.0356734512337046e-04 0.0000000000000000e+00  2.1466334277253190e-04 8.1359842539751790e-04 0.0000000000000000e+00  3.2909502970797442e-04 7.8213631269290315e-04 0.0000000000000000e+00  3.8198650875396979e-04 7.1472566163752996e-04 0.0000000000000000e+00  3.9228851742888833e-04 7.0843789236863777e-04 0.0000000000000000e+00  3.3006628928803185e-04 7.7373075140808780e-04 0.0000000000000000e+00  1.8953439921809857e-04 7.7566198887917871e-04 0.0000000000000000e+00  1.8480944873281401e-04 7.5910670936499584e-04 0.0000000000000000e+00  3.4174396970829178e-04 7.0269635441130840e-04 0.0000000000000000e+00  4.3977456295643086e-04 7.1014043904273983e-04 0.0000000000000000e+00  4.9223861748083739e-05 7.5691620853006827e-04 0.0000000000000000e+00  4.7964678152391342e-05 7.4772025628877178e-04 0.0000000000000000e+00  -1.1623551111552486e-04 6.6350900903736900e-04 0.0000000000000000e+00  -1.1684456158076524e-04 6.7218067675882355e-04 0.0000000000000000e+00  3.3149690297933564e-05 7.0167361130617114e-04 0.0000000000000000e+00  9.3419147113054453e-05 6.6436520869707892e-04 0.0000000000000000e+00  1.0322685218223249e-04 6.6238342056774697e-04 0.0000000000000000e+00  3.6299596162080801e-05 6.9541097439153993e-04 0.0000000000000000e+00  -1.2251725545682555e-04 6.3574629086114406e-04 0.0000000000000000e+00  -1.2039352179608057e-04 6.2195442792606576e-04 0.0000000000000000e+00  4.8501639017734129e-05 6.3620391077664855e-04 0.0000000000000000e+00  1.5671398534276707e-04 6.8455501195862115e-04 0.0000000000000000e+00  -2.7930328282014291e-04 5.6041770402138493e-04 0.0000000000000000e+00  -2.7639296612710966e-04 5.5332614071548335e-04 0.0000000000000000e+00  -4.2570325596101078e-04 4.2236224014012677e-04 0.0000000000000000e+00  -4.3059866495204229e-04 4.2834788684103023e-04 0.0000000000000000e+00  -2.6781634747811381e-04 5.1434155769258002e-04 0.0000000000000000e+00  -2.1002566333818318e-04 5.1206366638224701e-04 0.0000000000000000e+00  -2.0137607466449758e-04 5.1562825001339591e-04 0.0000000000000000e+00  -2.6293439682455091e-04 5.1122239063551697e-04 0.0000000000000000e+00  -4.1597760909963888e-04 3.9895481321462853e-04 0.0000000000000000e+00  -4.0735396545822823e-04 3.9002765227592255e-04 0.0000000000000000e+00  -2.5227442981197294e-04 4.7265557768356818e-04 0.0000000000000000e+00  -1.5007139767794233e-04 5.5481187565633563e-04 0.0000000000000000e+00  -5.6538538428412889e-04 2.7850163582519215e-04 0.0000000000000000e+00  -5.5873262374116738e-04 2.7461205372766618e-04 0.0000000000000000e+00  -5.2808952781840197e-04 2.4859042829706072e-04 0.0000000000000000e+00  -4.8032358050416817e-04 2.8302112836949515e-04 0.0000000000000000e+00  -4.7570269677009984e-04 2.8990860800789253e-04 0.0000000000000000e+00  -5.2229258434571672e-04 2.4901996506691674e-04 0.0000000000000000e+00  -5.1448267872835469e-04 2.3693141412906168e-04 0.0000000000000000e+00  -4.3422994964005372e-04 3.4065882167707499e-04 0.0000000000000000e+00  -6.6931512401352273e-04 2.7752178464616908e-04 0.0000000000000000e+00  -6.7051122795957542e-04 2.5886306427169448e-04 0.0000000000000000e+00  -6.4525714209715261e-04 2.3211586302679732e-04 0.0000000000000000e+00  -5.8334270642956994e-04 2.9116770688387094e-04 0.0000000000000000e+00  -5.8379906973966172e-04 2.8119941641697576e-04 0.0000000000000000e+00  -5.5774374097799931e-04 2.4291414360870332e-04 0.0000000000000000e+00  -6.5601942158557275e-04 2.8667917363973564e-04 0.0000000000000000e+00  -5.7299150299760029e-04 2.9680805228201896e-04 0.0000000000000000e+00  -8.7169666011618647e-04 4.2093252612731180e-05 0.0000000000000000e+00  -7.7765435772568948e-04 9.1890942485793202e-05 0.0000000000000000e+00  -7.3117963089863324e-04 4.8635414885400284e-05 0.0000000000000000e+00  -8.2595785740569179e-04 8.2669890274264090e-07 0.0000000000000000e+00  -8.6490706528107692e-04 2.7090635238285598e-05 0.0000000000000000e+00  -7.7590428713742127e-04 8.5396914453767870e-05 0.0000000000000000e+00  -8.6104481323651420e-04 5.2088458384703452e-05 0.0000000000000000e+00  -7.7122535343943283e-04 9.9641612652142753e-05 0.0000000000000000e+00  -9.4102066520597872e-04 -1.9949370237462219e-04 0.0000000000000000e+00  -8.5474355655755898e-04 -1.2007620083099592e-04 0.0000000000000000e+00  -7.9656615129348823e-04 -1.5417203926688900e-04 0.0000000000000000e+00  -8.8238429061570961e-04 -2.3051357736036742e-04 0.0000000000000000e+00  -9.2750301054563076e-04 -2.0890513102250709e-04 0.0000000000000000e+00  -8.4968288564052212e-04 -1.2359451596441186e-04 0.0000000000000000e+00  -9.3453726913098696e-04 -1.9054684738937432e-04 0.0000000000000000e+00  -8.5124643918775837e-04 -1.1284796796486122e-04 0.0000000000000000e+00  -8.7166414610628394e-04 -4.0842139126139043e-04 0.0000000000000000e+00  -8.0988193603449290e-04 -3.0959160131547301e-04 0.0000000000000000e+00  -7.3625254887911204e-04 -3.3267971344433850e-04 0.0000000000000000e+00  -8.0339928948371694e-04 -4.2741237649861425e-04 0.0000000000000000e+00  -8.4865821088881115e-04 -4.1324789037632903e-04 0.0000000000000000e+00  -7.9312777820608684e-04 -3.1406868314271062e-04 0.0000000000000000e+00  -8.6976098170347266e-04 -4.0297179114198907e-04 0.0000000000000000e+00  -8.0549218399809225e-04 -3.0720174591747482e-04 0.0000000000000000e+00  -6.6840969002223847e-04 -5.5920024581079342e-04 0.0000000000000000e+00  -6.3996357834245575e-04 -4.6028367607148192e-04 0.0000000000000000e+00  -5.6611193816367435e-04 -4.6200463217393729e-04 0.0000000000000000e+00  -6.0200551087866985e-04 -5.5916651199282861e-04 0.0000000000000000e+00  -6.4083866347744661e-04 -5.5464020807482139e-04 0.0000000000000000e+00  -6.1659937386245316e-04 -4.5634542284972744e-04 0.0000000000000000e+00  -6.6932685674064569e-04 -5.5635209512808561e-04 0.0000000000000000e+00  -6.3414101403832385e-04 -4.5677723728052499e-04 0.0000000000000000e+00  -3.5995674303183239e-04 -6.2514894714531212e-04 0.0000000000000000e+00  -3.6470639973252357e-04 -5.3868196837615417e-04 0.0000000000000000e+00  -3.0720856819174436e-04 -5.1800257505730705e-04 0.0000000000000000e+00  -3.0759205175132293e-04 -6.0526535821346151e-04 0.0000000000000000e+00  -3.3514577339147149e-04 -6.1170851491378162e-04 0.0000000000000000e+00  -3.4607288248777600e-04 -5.2929591872600645e-04 0.0000000000000000e+00  -3.6643340944928079e-04 -6.2500579517856859e-04 0.0000000000000000e+00  -3.6582777465525291e-04 -5.3681205851476433e-04 0.0000000000000000e+00  6.2615497071196943e-06 -5.9215758126156389e-04 0.0000000000000000e+00  -3.1252208721556211e-05 -5.3043875915520294e-04 0.0000000000000000e+00  -3.7943740592190898e-06 -4.9730006844504130e-04 0.0000000000000000e+00  3.2380364248778477e-05 -5.5958480188996970e-04 0.0000000000000000e+00  2.1370639968676896e-05 -5.7577618098108197e-04 0.0000000000000000e+00  -2.3332153173606489e-05 -5.2219933056722007e-04 0.0000000000000000e+00  -6.2058622765025456e-06 -5.9665279873992428e-04 0.0000000000000000e+00  -4.0364687623227057e-05 -5.3324618249324992e-04 0.0000000000000000e+00  3.6559358996929097e-04 -4.7562622772978652e-04 0.0000000000000000e+00  2.9756057250288851e-04 -4.5192620046909782e-04 0.0000000000000000e+00  3.0084372043576006e-04 -4.0208485630733692e-04 0.0000000000000000e+00  3.6741289398145360e-04 -4.3014243764209010e-04 0.0000000000000000e+00  3.7474688142645376e-04 -4.5213156833937522e-04 0.0000000000000000e+00  3.0364412587511642e-04 -4.3484190995323244e-04 0.0000000000000000e+00  3.5171112482786110e-04 -4.8109960580496280e-04 0.0000000000000000e+00  2.8830457202770100e-04 -4.5188653503479531e-04 0.0000000000000000e+00  6.7126355735521608e-04 -2.8238657377592513e-04 0.0000000000000000e+00  5.8442815468200268e-04 -2.9764776035690326e-04 0.0000000000000000e+00  5.6094667716658441e-04 -2.4493912419378466e-04 0.0000000000000000e+00  6.4708141100917611e-04 -2.3442805899930144e-04 0.0000000000000000e+00  6.7119772427933183e-04 -2.5997439667827416e-04 0.0000000000000000e+00  5.8431844768988322e-04 -2.8193809797587375e-04 0.0000000000000000e+00  6.5777630846456064e-04 -2.9020180415153163e-04 0.0000000000000000e+00  5.7506750512739267e-04 -3.0063498765043695e-04 0.0000000000000000e+00  8.7683237757777191e-04 -4.7791210806370776e-05 0.0000000000000000e+00  7.8555087984213696e-04 -1.0053932485076371e-04 0.0000000000000000e+00  7.3311861854692890e-04 -4.9380846856457211e-05 0.0000000000000000e+00  8.2781876218529287e-04 -2.2038227776853309e-06 0.0000000000000000e+00  8.6558578652102831e-04 -2.8203179688529925e-05 0.0000000000000000e+00  7.7541149680178411e-04 -8.5558645632704319e-05 0.0000000000000000e+00  8.6324025679868923e-04 -5.5101853136026722e-05 0.0000000000000000e+00  7.7368087211647334e-04 -1.0276682571253270e-04 0.0000000000000000e+00  9.4123471252915817e-04 1.9843834007512572e-04 0.0000000000000000e+00  8.5749515390423723e-04 1.1899968268861224e-04 0.0000000000000000e+00  7.9517577728739381e-04 1.5320176791262623e-04 0.0000000000000000e+00  8.8231661657881487e-04 2.3020365127973452e-04 0.0000000000000000e+00  9.2448156006735317e-04 2.1020527385233847e-04 0.0000000000000000e+00  8.4545190986046485e-04 1.2526456998853043e-04 0.0000000000000000e+00  9.3753704156063558e-04 1.8803506982965218e-04 0.0000000000000000e+00  8.5537061154207896e-04 1.1000378810830535e-04 0.000