<?xml version="1.0"?>
<VTKFile type="UnstructuredGrid"  version="0.1"  >
<UnstructuredGrid>
<Piece  NumberOfPoints="4160" NumberOfCells="16142">
<Points>
<DataArray  type="Float64"  NumberOfComponents="3"  format="ascii">0.14 0 -0.09000000000000001  0.21 0 -0.09000000000000001  0.1373099392564523 0.02731264508225804 -0.09000000000000001  0.2059649088846784 0.04096896762338705 -0.09000000000000001  0.14 0 -0.02  0.21 0 -0.02  0.1373099392564523 0.02731264508225797 -0.02  0.2059649088846784 0.04096896762338705 -0.02  0.1915 0 -0.02  0.175 0.0165 -0.02  0.1585 0 -0.02  0.1373099392564523 -0.02731264508225797 -0.09000000000000001  0.2059649088846784 -0.04096896762338696 -0.09000000000000001  0.2059649088846784 -0.04096896762338696 -0.02  0.1373099392564523 -0.02731264508225805 -0.02  0.175 -0.0165 -0.02  0.1940147018273702 0.08036352079666885 -0.09000000000000001  0.1293431345515802 0.05357568053111257 -0.09000000000000001  0.1164057457223563 0.07777983262274438 -0.09000000000000001  0.1746086185835344 0.1166697489341166 -0.09000000000000001  0.1940147018273702 0.08036352079666885 -0.02  0.1769229304759114 0.07328387729791469 -0.02  0.146434905903039 0.06065532402986673 -0.02  0.1293431345515802 0.05357568053111257 -0.02  0.1746086185835344 0.1166697489341166 -0.02  0.1164057457223564 0.07777983262274432 -0.02  0.1553646415554512 0.08221361295032695 -0.02  0.1679931948234991 0.05172558837745448 -0.02  0.148492424049175 0.148492424049175 -0.09000000000000001  0.09899494936611666 0.09899494936611665 -0.09000000000000001  0.07777983262274425 0.1164057457223564 -0.09000000000000001  0.1166697489341164 0.1746086185835346 -0.09000000000000001  0.148492424049175 0.148492424049175 -0.02  0.1354109485972239 0.1354109485972238 -0.02  0.1120764248180678 0.1120764248180678 -0.02  0.09899494936611666 0.09899494936611665 -0.02  0.1166697489341164 0.1746086185835346 -0.02  0.07777983262274432 0.1164057457223564 -0.02  0.1120764248180678 0.1354109485972238 -0.02  0.1354109485972239 0.1120764248180678 -0.02  0.08036352079666885 0.1940147018273702 -0.09000000000000001  0.05357568053111257 0.1293431345515802 -0.09000000000000001  0.02731264508225788 0.1373099392564523 -0.09000000000000001  0.04096896762338683 0.2059649088846784 -0.09000000000000001  0.08036352079666885 0.1940147018273702 -0.02  0.07328387729791469 0.1769229304759114 -0.02  0.06065532402986673 0.146434905903039 -0.02  0.05357568053111257 0.1293431345515802 -0.02  0.04096896762338683 0.2059649088846784 -0.02  0.02731264508225797 0.1373099392564523 -0.02  0.05172558837745448 0.1679931948234991 -0.02  0.08221361295032695 0.1553646415554512 -0.02  1.285879139104721e-17 0.21 -0.09000000000000001  8.572527594031473e-18 0.14 -0.09000000000000001  -0.02731264508225804 0.1373099392564522 -0.09000000000000001  -0.04096896762338704 0.2059649088846784 -0.09000000000000001  1.285879139104721e-17 0.21 -0.02  1.172599310183591e-17 0.1915 -0.02  9.705325883242774e-18 0.1585 -0.02  8.572527594031473e-18 0.14 -0.02  -0.04096896762338704 0.2059649088846784 -0.02  -0.02731264508225796 0.1373099392564523 -0.02  -0.01649999999999999 0.175 -0.02  0.01650000000000001 0.175 -0.02  -0.08036352079666884 0.1940147018273702 -0.09000000000000001  -0.05357568053111256 0.1293431345515802 -0.09000000000000001  -0.07777983262274438 0.1164057457223563 -0.09000000000000001  -0.1166697489341166 0.1746086185835344 -0.09000000000000001  -0.08036352079666884 0.1940147018273702 -0.02  -0.07328387729791469 0.1769229304759114 -0.02  -0.06065532402986672 0.146434905903039 -0.02  -0.05357568053111256 0.1293431345515802 -0.02  -0.1166697489341166 0.1746086185835344 -0.02  -0.07777983262274432 0.1164057457223564 -0.02  -0.08221361295032693 0.1553646415554512 -0.02  -0.05172558837745447 0.1679931948234991 -0.02  -0.148492424049175 0.148492424049175 -0.09000000000000001  -0.09899494936611665 0.09899494936611666 -0.09000000000000001  -0.1164057457223564 0.07777983262274427 -0.09000000000000001  -0.1746086185835345 0.1166697489341164 -0.09000000000000001  -0.148492424049175 0.148492424049175 -0.02  -0.1354109485972238 0.1354109485972239 -0.02  -0.1120764248180678 0.1120764248180678 -0.02  -0.09899494936611665 0.09899494936611666 -0.02  -0.1746086185835345 0.1166697489341164 -0.02  -0.1164057457223563 0.07777983262274435 -0.02  -0.1354109485972238 0.1120764248180678 -0.02  -0.1120764248180678 0.1354109485972239 -0.02  -0.1940147018273702 0.08036352079666888 -0.09000000000000001  -0.1293431345515802 0.05357568053111259 -0.09000000000000001  -0.1373099392564523 0.02731264508225789 -0.09000000000000001  -0.2059649088846784 0.04096896762338684 -0.09000000000000001  -0.1940147018273702 0.08036352079666888 -0.02  -0.1769229304759114 0.07328387729791472 -0.02  -0.146434905903039 0.06065532402986675 -0.02  -0.1293431345515802 0.05357568053111259 -0.02  -0.2059649088846784 0.04096896762338684 -0.02  -0.1373099392564523 0.02731264508225798 -0.02  -0.1679931948234991 0.05172558837745449 -0.02  -0.1553646415554512 0.08221361295032696 -0.02  -0.21 2.571758278209441e-17 -0.09000000000000001  -0.14 1.714505518806294e-17 -0.09000000000000001  -0.1373099392564523 -0.02731264508225804 -0.09000000000000001  -0.2059649088846784 -0.04096896762338704 -0.09000000000000001  -0.21 2.571758278209441e-17 -0.02  -0.1915 2.345198620367181e-17 -0.02  -0.1585 1.941065176648555e-17 -0.02  -0.14 1.714505518806294e-17 -0.02  -0.2059649088846784 -0.04096896762338704 -0.02  -0.1373099392564523 -0.02731264508225796 -0.02  -0.175 -0.01649999999999998 -0.02  -0.175 0.01650000000000002 -0.02  -0.1940147018273702 -0.08036352079666884 -0.09000000000000001  -0.1293431345515802 -0.05357568053111256 -0.09000000000000001  -0.1164057457223563 -0.07777983262274438 -0.09000000000000001  -0.1746086185835345 -0.1166697489341165 -0.09000000000000001  -0.1940147018273702 -0.08036352079666884 -0.02  -0.1769229304759114 -0.07328387729791469 -0.02  -0.146434905903039 -0.06065532402986672 -0.02  -0.1293431345515802 -0.05357568053111256 -0.02  -0.1746086185835345 -0.1166697489341165 -0.02  -0.1164057457223564 -0.07777983262274432 -0.02  -0.1553646415554512 -0.08221361295032693 -0.02  -0.1679931948234992 -0.05172558837745446 -0.02  -0.148492424049175 -0.148492424049175 -0.09000000000000001  -0.09899494936611669 -0.09899494936611665 -0.09000000000000001  -0.07777983262274432 -0.1164057457223563 -0.09000000000000001  -0.1166697489341165 -0.1746086185835345 -0.09000000000000001  -0.148492424049175 -0.148492424049175 -0.02  -0.1354109485972239 -0.1354109485972238 -0.02  -0.1120764248180678 -0.1120764248180678 -0.02  -0.09899494936611669 -0.09899494936611665 -0.02  -0.1166697489341165 -0.1746086185835345 -0.02  -0.07777983262274439 -0.1164057457223563 -0.02  -0.1120764248180678 -0.1354109485972238 -0.02  -0.1354109485972239 -0.1120764248180678 -0.02  -0.08036352079666896 -0.1940147018273702 -0.09000000000000001  -0.05357568053111265 -0.1293431345515801 -0.09000000000000001  -0.0273126450822579 -0.1373099392564523 -0.09000000000000001  -0.04096896762338685 -0.2059649088846784 -0.09000000000000001  -0.08036352079666896 -0.1940147018273702 -0.02  -0.07328387729791479 -0.1769229304759114 -0.02  -0.06065532402986681 -0.1464349059030389 -0.02  -0.05357568053111265 -0.1293431345515801 -0.02  -0.04096896762338685 -0.2059649088846784 -0.02  -0.02731264508225799 -0.1373099392564523 -0.02  -0.05172558837745456 -0.1679931948234991 -0.02  -0.08221361295032702 -0.1553646415554512 -0.02  -3.857637417314163e-17 -0.21 -0.09000000000000001  -2.571758278209442e-17 -0.14 -0.09000000000000001  0.02731264508225808 -0.1373099392564523 -0.09000000000000001  0.04096896762338711 -0.2059649088846784 -0.09000000000000001  -3.857637417314163e-17 -0.21 -0.02  -3.517797930550773e-17 -0.1915 -0.02  -2.911597764972832e-17 -0.1585 -0.02  -2.571758278209442e-17 -0.14 -0.02  0.04096896762338711 -0.2059649088846784 -0.02  0.027312645082258 -0.1373099392564523 -0.02  0.01649999999999997 -0.175 -0.02  -0.01650000000000003 -0.175 -0.02  0.08036352079666889 -0.1940147018273702 -0.09000000000000001  0.05357568053111261 -0.1293431345515801 -0.09000000000000001  0.07777983262274436 -0.1164057457223563 -0.09000000000000001  0.1166697489341165 -0.1746086185835345 -0.09000000000000001  0.08036352079666889 -0.1940147018273702 -0.02  0.07328387729791473 -0.1769229304759114 -0.02  0.06065532402986677 -0.1464349059030389 -0.02  0.05357568053111261 -0.1293431345515801 -0.02  0.1166697489341165 -0.1746086185835345 -0.02  0.07777983262274431 -0.1164057457223564 -0.02  0.08221361295032698 -0.1553646415554512 -0.02  0.05172558837745452 -0.1679931948234991 -0.02  0.1484924240491749 -0.148492424049175 -0.09000000000000001  0.09899494936611664 -0.09899494936611669 -0.09000000000000001  0.1164057457223563 -0.0777798326227444 -0.09000000000000001  0.1746086185835344 -0.1166697489341166 -0.09000000000000001  0.1484924240491749 -0.148492424049175 -0.02  0.1354109485972238 -0.1354109485972239 -0.02  0.1120764248180678 -0.1120764248180678 -0.02  0.09899494936611664 -0.09899494936611669 -0.02  0.1746086185835344 -0.1166697489341166 -0.02  0.1164057457223562 -0.07777983262274449 -0.02  0.1354109485972238 -0.1120764248180678 -0.02  0.1120764248180677 -0.1354109485972239 -0.02  0.1940147018273702 -0.08036352079666897 -0.09000000000000001  0.1293431345515801 -0.05357568053111266 -0.09000000000000001  0.1940147018273702 -0.08036352079666897 -0.02  0.1769229304759114 -0.07328387729791482 -0.02  0.1464349059030389 -0.06065532402986683 -0.02  0.1293431345515801 -0.05357568053111266 -0.02  0.1679931948234991 -0.05172558837745458 -0.02  0.1553646415554512 -0.08221361295032703 -0.02  0.1915 0 -0.006  0.175 0.0165 -0.006  0.1585 0 -0.006  0.18445 0 -0.006  0.175 0.00945 -0.006  0.16555 0 -0.006  0.175 -0.0165 -0.006  0.175 -0.00945 -0.006  0.1769229304759114 0.07328387729791469 -0.006  0.1704095797717068 0.07058595909974082 -0.006  0.1529482566072435 0.06335324222804062 -0.006  0.146434905903039 0.06065532402986673 -0.006  0.1553646415554512 0.082213612950
[...]
<PointData  Vectors="f_321"> 
<DataArray  type="Float64"  Name="f_321"  NumberOfComponents="3" format="ascii">-4.3715001473824293e-04 -7.7936272717658319e-06 0.0000000000000000e+00  -4.4255662965916843e-04 -7.5010523965283408e-06 0.0000000000000000e+00  -3.2973847245166470e-04 1.2061299671862122e-04 0.0000000000000000e+00  -3.3381076501524259e-04 1.2259653167205755e-04 0.0000000000000000e+00  -4.0615688563907018e-04 -1.2093131525520639e-05 0.0000000000000000e+00  -4.0964226745278767e-04 -1.4219111517145745e-05 0.0000000000000000e+00  -3.1205784841385894e-04 1.0786798668075751e-04 0.0000000000000000e+00  -3.1884164619597785e-04 1.1051950688108782e-04 0.0000000000000000e+00  -3.9077758168206648e-04 2.2608615341070603e-05 0.0000000000000000e+00  -3.5639160776880838e-04 7.1328676475227159e-05 0.0000000000000000e+00  -3.9014143010857743e-04 2.8399835592655829e-05 0.0000000000000000e+00  -5.2801129880509037e-04 -1.3557474536379159e-04 0.0000000000000000e+00  -5.3496431679608695e-04 -1.3661657688987443e-04 0.0000000000000000e+00  -5.0518663145565114e-04 -1.3891805218692210e-04 0.0000000000000000e+00  -4.9418478538109398e-04 -1.3634942991622522e-04 0.0000000000000000e+00  -4.2143834760421787e-04 -1.5059180866197039e-05 0.0000000000000000e+00  -2.1192580755245447e-04 2.4729162648125176e-04 0.0000000000000000e+00  -2.0955223071582085e-04 2.4408903111375896e-04 0.0000000000000000e+00  -8.1239078675845962e-05 3.5847646575679374e-04 0.0000000000000000e+00  -8.1808541285193290e-05 3.6318310633022267e-04 0.0000000000000000e+00  -2.0029414916827705e-04 2.2550491332422082e-04 0.0000000000000000e+00  -1.7054821605291416e-04 2.3215281505853407e-04 0.0000000000000000e+00  -1.6695247168954677e-04 2.3449522228201258e-04 0.0000000000000000e+00  -1.9744403753524519e-04 2.2452277179566850e-04 0.0000000000000000e+00  -8.3928037845656798e-05 3.4316453695991042e-04 0.0000000000000000e+00  -8.2400260074777792e-05 3.3569951211041198e-04 0.0000000000000000e+00  -1.2565516844209937e-04 2.7395936629828971e-04 0.0000000000000000e+00  -2.0740124672953217e-04 1.9339344664683745e-04 0.0000000000000000e+00  5.1029814511342557e-05 4.6445405604914254e-04 0.0000000000000000e+00  4.9997450483161925e-05 4.5883197850777062e-04 0.0000000000000000e+00  1.7968283313800034e-04 5.4177727848562346e-04 0.0000000000000000e+00  1.8272544273935040e-04 5.4848546514784627e-04 0.0000000000000000e+00  3.9630910524233131e-05 4.3090183066952386e-04 0.0000000000000000e+00  7.5754571114901905e-05 4.0634278763801202e-04 0.0000000000000000e+00  8.1718597763630579e-05 4.0483351139579616e-04 0.0000000000000000e+00  4.1382720863897970e-05 4.2696067538938146e-04 0.0000000000000000e+00  1.6390672200539152e-04 5.2356125967926537e-04 0.0000000000000000e+00  1.5985374061670501e-04 5.1242737396486090e-04 0.0000000000000000e+00  1.2429450203531897e-04 4.3489198877989202e-04 0.0000000000000000e+00  3.8287288742563355e-05 3.7238812494424947e-04 0.0000000000000000e+00  3.0626517713705926e-04 6.1091751792447197e-04 0.0000000000000000e+00  3.0196748917817907e-04 6.0373804270731429e-04 0.0000000000000000e+00  4.1322995000529224e-04 6.4263088059892228e-04 0.0000000000000000e+00  4.1941455977113212e-04 6.5031403645279058e-04 0.0000000000000000e+00  2.7358383209616984e-04 5.7069672956358022e-04 0.0000000000000000e+00  3.0959098594421754e-04 5.1879381260387810e-04 0.0000000000000000e+00  3.1819949212301131e-04 5.1359712124403561e-04 0.0000000000000000e+00  2.7399340487498298e-04 5.6440630756250784e-04 0.0000000000000000e+00  3.8673829651739969e-04 6.2425943168419799e-04 0.0000000000000000e+00  3.7779192683720230e-04 6.1116908269617798e-04 0.0000000000000000e+00  3.5545697153098661e-04 5.2962242473106216e-04 0.0000000000000000e+00  2.7708182913999439e-04 4.9481146268574882e-04 0.0000000000000000e+00  5.1478174095135817e-04 6.6443093148926737e-04 0.0000000000000000e+00  5.0788919087282956e-04 6.5678915594668727e-04 0.0000000000000000e+00  5.8375981665984543e-04 6.4573353047664439e-04 0.0000000000000000e+00  5.9213282380771301e-04 6.5322550811557436e-04 0.0000000000000000e+00  4.6578775063099031e-04 6.2364960090304194e-04 0.0000000000000000e+00  4.9687883541902039e-04 5.5242326352916769e-04 0.0000000000000000e+00  5.0606207944742763e-04 5.4410857644009993e-04 0.0000000000000000e+00  4.6479389461463771e-04 6.1596570180627293e-04 0.0000000000000000e+00  5.5055404552707340e-04 6.3000500123157300e-04 0.0000000000000000e+00  5.3808360867133899e-04 6.1694483772261016e-04 0.0000000000000000e+00  5.3241248009519896e-04 5.4373977218714052e-04 0.0000000000000000e+00  4.7450219522073153e-04 5.4213700926407501e-04 0.0000000000000000e+00  6.4480764644124185e-04 6.1689917694966918e-04 0.0000000000000000e+00  6.3638168191040108e-04 6.0994874359392485e-04 0.0000000000000000e+00  6.6532865909502907e-04 5.5062144496078550e-04 0.0000000000000000e+00  6.7459623728194113e-04 5.5679834105725129e-04 0.0000000000000000e+00  5.8694207526802881e-04 5.8178211408044125e-04 0.0000000000000000e+00  6.0840471131081027e-04 5.0211944430904386e-04 0.0000000000000000e+00  6.1681357715738863e-04 4.9200359474116493e-04 0.0000000000000000e+00  5.8472455202374476e-04 5.7386207170522744e-04 0.0000000000000000e+00  6.3038330410230767e-04 5.3999369807640723e-04 0.0000000000000000e+00  6.1637011977132825e-04 5.2889176689582774e-04 0.0000000000000000e+00  6.2815163737155589e-04 4.7520719749055918e-04 0.0000000000000000e+00  5.9943358128355603e-04 5.0702968352949569e-04 0.0000000000000000e+00  6.7661522564723580e-04 4.7551504829602292e-04 0.0000000000000000e+00  6.6794641978580420e-04 4.7030636232103757e-04 0.0000000000000000e+00  6.4563514715143371e-04 3.7168228721363446e-04 0.0000000000000000e+00  6.5441532565896994e-04 3.7558276765003388e-04 0.0000000000000000e+00  6.1868015331340400e-04 4.5141731828527446e-04 0.0000000000000000e+00  6.2827874759916261e-04 3.7473671362290353e-04 0.0000000000000000e+00  6.3334799984313974e-04 3.6510992177138753e-04 0.0000000000000000e+00  6.1552264194945569e-04 4.4448351731458762e-04 0.0000000000000000e+00  6.1439912238767688e-04 3.6767796961376478e-04 0.0000000000000000e+00  6.0079955557342467e-04 3.6033758401400487e-04 0.0000000000000000e+00  6.2813687342643952e-04 3.3442363243748642e-04 0.0000000000000000e+00  6.3421732784813532e-04 3.9404268363273852e-04 0.0000000000000000e+00  6.0553444121620693e-04 2.6167647470031028e-04 0.0000000000000000e+00  5.9791148978470597e-04 2.5902547938491736e-04 0.0000000000000000e+00  5.2774830576150474e-04 1.3613162052158797e-04 0.0000000000000000e+00  5.3470061621247356e-04 1.3716927983787873e-04 0.0000000000000000e+00  5.5638022403011042e-04 2.5223154837626638e-04 0.0000000000000000e+00  5.5076734277195770e-04 1.9150744730693224e-04 0.0000000000000000e+00  5.5394855318986703e-04 1.8231806908306850e-04 0.0000000000000000e+00  5.5279786738186127e-04 2.4731640306608011e-04 0.0000000000000000e+00  5.0493053899583527e-04 1.3942421559641404e-04 0.0000000000000000e+00  4.9393812220387882e-04 1.3684985585520716e-04 0.0000000000000000e+00  5.3284477503318908e-04 1.4256861451340312e-04 0.0000000000000000e+00  5.7048842957013214e-04 2.2243137667326448e-04 0.0000000000000000e+00  4.4232856092872542e-04 8.0210547171281367e-06 0.0000000000000000e+00  4.3692362744727554e-04 8.3180610488607339e-06 0.0000000000000000e+00  3.2956666037585680e-04 -1.2011676541841486e-04 0.0000000000000000e+00  3.3363185733122590e-04 -1.2210189598722772e-04 0.0000000000000000e+00  4.0944811491498955e-04 1.4689670714324406e-05 0.0000000000000000e+00  3.9053468880680857e-04 -2.1513341132725823e-05 0.0000000000000000e+00  3.9015341693827586e-04 -2.8106356428704197e-05 0.0000000000000000e+00  4.0597162608747113e-04 1.2529051535837855e-05 0.0000000000000000e+00  3.1866408518110845e-04 -1.1006251570607874e-04 0.0000000000000000e+00  3.1189691811908313e-04 -1.0741962024374887e-04 0.0000000000000000e+00  3.5645434910259533e-04 -7.0980561238909406e-05 0.0000000000000000e+00  4.2137687287639004e-04 1.5650060101392288e-05 0.0000000000000000e+00  2.1181998435773012e-04 -2.4682853722021963e-04 0.0000000000000000e+00  2.0945916495381688e-04 -2.4362311708287423e-04 0.0000000000000000e+00  8.1258621082342443e-05 -3.5804570433672363e-04 0.0000000000000000e+00  8.1817906323462710e-05 -3.6275481251141022e-04 0.0000000000000000e+00  2.0017427458861298e-04 -2.2507527800014174e-04 0.0000000000000000e+00  1.7079894999359383e-04 -2.3129845190220869e-04 0.0000000000000000e+00  1.6694978465951499e-04 -2.3412608407958737e-04 0.0000000000000000e+00  1.9734351490975722e-04 -2.2410317523816541e-04 0.0000000000000000e+00  8.3909247059984435e-05 -3.4278674119560254e-04 0.0000000000000000e+00  8.2423142594924130e-05 -3.3530046310600945e-04 0.0000000000000000e+00  1.2590503492706799e-04 -2.7324220725249092e-04 0.0000000000000000e+00  2.0749112899781877e-04 -1.9282387956680587e-04 0.0000000000000000e+00  -5.0873389531498934e-05 -4.6406313996750977e-04 0.0000000000000000e+00  -4.9843758638167440e-05 -4.5844123562714331e-04 0.0000000000000000e+00  -1.7939047033513792e-04 -5.4142862741733190e-04 0.0000000000000000e+00  -1.8240875534567393e-04 -5.4813834502394918e-04 0.0000000000000000e+00  -3.9492292912240464e-05 -4.3053548501378002e-04 0.0000000000000000e+00  -7.5503441721778958e-05 -4.0596385248710826e-04 0.0000000000000000e+00  -8.1457069273095835e-05 -4.0449941389083101e-04 0.0000000000000000e+00  -4.1238637040275945e-05 -4.2660071511060069e-04 0.0000000000000000e+00  -1.6354197861913368e-04 -5.2324273325282558e-04 0.0000000000000000e+00  -1.5957125277909457e-04 -5.1211456482140366e-04 0.0000000000000000e+00  -1.2423623357716478e-04 -4.3461712315563791e-04 0.0000000000000000e+00  -3.7818396009531194e-05 -3.7195383711073230e-04 0.0000000000000000e+00  -3.0582807574702976e-04 -6.1060979841867516e-04 0.0000000000000000e+00  -3.0156779574123807e-04 -6.0342380965876501e-04 0.0000000000000000e+00  -4.1278610232563966e-04 -6.4233218818927408e-04 0.0000000000000000e+00  -4.1892731127575304e-04 -6.5002695137687534e-04 0.0000000000000000e+00  -2.7313464312341733e-04 -5.7041541683268415e-04 0.0000000000000000e+00  -3.1007213060483098e-04 -5.1838394410972819e-04 0.0000000000000000e+00  -3.1750560854800516e-04 -5.1330880566350084e-04 0.0000000000000000e+00  -2.7355048057967762e-04 -5.6412460637104468e-04 0.0000000000000000e+00  -3.8616855537795461e-04 -6.2402007835030636e-04 0.0000000000000000e+00  -3.7732419444170585e-04 -6.1090827019799772e-04 0.0000000000000000e+00  -3.5521759039594433e-04 -5.2929424364251125e-04 0.0000000000000000e+00  -2.7737102625766043e-04 -4.9443720688108011e-04 0.0000000000000000e+00  -5.1432768675382880e-04 -6.6413463141773812e-04 0.0000000000000000e+00  -5.0747759333414385e-04 -6.5647758292128127e-04 0.0000000000000000e+00  -5.8345114302270947e-04 -6.4537447299921585e-04 0.0000000000000000e+00  -5.9178714841752087e-04 -6.5288250810072580e-04 0.0000000000000000e+00  -4.6531218015270434e-04 -6.2339070660986419e-04 0.0000000000000000e+00  -4.9750160274481881e-04 -5.5177466231567864e-04 0.0000000000000000e+00  -5.0527770214844599e-04 -5.4391760331624569e-04 0.0000000000000000e+00  -4.6432123315782222e-04 -6.1570678810070898e-04 0.0000000000000000e+00  -5.5013533815175247e-04 -6.2973160901880893e-04 0.0000000000000000e+00  -5.3775990198819319e-04 -6.1663343078134690e-04 0.0000000000000000e+00  -5.3219982260506319e-04 -5.4332590612427728e-04 0.0000000000000000e+00  -4.7474940105991136e-04 -5.4159018347070488e-04 0.0000000000000000e+00  -6.4463471970227265e-04 -6.1647224791585155e-04 0.0000000000000000e+00  -6.3623156661252189e-04 -6.0951083175906566e-04 0.0000000000000000e+00  -6.6536042723629879e-04 -5.5008994180112095e-04 0.0000000000000000e+00  -6.7463077485152058e-04 -5.5626190363803870e-04 0.0000000000000000e+00  -5.8677065562904153e-04 -5.8140689535992501e-04 0.0000000000000000e+00  -6.0932022700423897e-04 -5.0118034955488010e-04 0.0000000000000000e+00  -6.1624157089547554e-04 -4.9167084325813155e-04 0.0000000000000000e+00  -5.8452190299337111e-04 -5.7348279657260090e-04 0.0000000000000000e+00  -6.3044863169167589e-04 -5.3947897580571772e-04 0.0000000000000000e+00  -6.1643661576412853e-04 -5.2837850602971415e-04 0.0000000000000000e+00  -6.2825546072732249e-04 -4.7459671274473723e-04 0.0000000000000000e+00  -5.9997317722158784e-04 -5.0625580695905377e-04 0.0000000000000000e+00  -6.7681757826157168e-04 -4.7490230149006851e-04 0.0000000000000000e+00  -6.6813021003820966e-04 -4.6970627536603761e-04 0.0000000000000000e+00  -6.4589855587666913e-04 -3.7106735245467378e-04 0.0000000000000000e+00  -6.5468415860051954e-04 -3.7496780368058907e-04 0.0000000000000000e+00  -6.1891378589519258e-04 -4.5084054974845768e-04 0.0000000000000000e+00  -6.2731205839908406e-04 -3.7492346517689320e-04 0.0000000000000000e+00  -6.3366853572104933e-04 -3.6432970754600219e-04 0.0000000000000000e+00  -6.1580151629981933e-04 -4.4385123196487384e-04 0.0000000000000000e+00  -6.1467141606572138e-04 -3.6711782148713388e-04 0.0000000000000000e+00  -6.0113369671481074e-04 -3.5971579235084453e-04 0.0000000000000000e+00  -6.2842337575360848e-04 -3.3372796525714345e-04 0.0000000000000000e+00  -6.3404628217079019e-04 -3.9365321572691397e-04 0.0000000000000000e+00  -6.0581415800756177e-04 -2.6109324641618791e-04 0.0000000000000000e+00  -5.9819214075994536e-04 -2.5843526827524902e-04 0.0000000000000000e+00  -5.5666254779774703e-04 -2.5170254967448488e-04 0.0000000000000000e+00  -5.5160197179577989e-04 -1.9026233288775446e-04 0.0000000000000000e+00  -5.5393936312717615e-04 -1.8190040034565678e-04 0.0000000000000000e+00  -5.5305739057642344e-04 -2.4679275479238914e-04 0.0000000000000000e+00  -5.3287811239869352e-04 -1.4208864281012106e-04 0.0000000000000000e+00  -5.7139607160702614e-04 -2.2108654173853809e-04 0.0000000000000000e+00  -3.7895167102483524e-04 1.7662513272472983e-04 0.0000000000000000e+00  -3.6654322278524987e-04 1.8640937799834631e-04 0.0000000000000000e+00  -3.6622926810453183e-04 1.4983360886790438e-04 0.0000000000000000e+00  -3.2903282851040399e-04 1.8237076577993133e-04 0.0000000000000000e+00  -3.2044169720141794e-04 1.8921613517154637e-04 0.0000000000000000e+00  -3.1548849122739649e-04 1.5390978656092960e-04 0.0000000000000000e+00  -3.8464719390977241e-04 1.6102059463931584e-04 0.0000000000000000e+00  -3.3203294533657265e-04 1.7278399227742736e-04 0.0000000000000000e+00  -7.7650624381725037e-05 2.9785248121820106e-04 0.0000000000000000e+00  -5.0987107044143181e-05 2.7145357309344510e-04 0.0000000000000000e+00  -6.0698810949953030e-05 2.5121524221952476e-04 0.0000000000000000e+00  -8.6818701017365272e-05 2.7804193537267946e-04 0.0000000000000000e+00  -6.5705723581924367e-05 3.0616605210040453e-04 0.0000000000000000e+00  -4.2376092996272211e-05 2.7743544680392993e-04 0.0000000000000000e+00  -8.9619060769461576e-05 2.8301072423787870e-04 0.0000000000000000e+00  -5.8367245613755929e-05 2.6279452980792703e-04 0.0000000000000000e+00  2.3557395603812835e-04 3.7383788578975927e-04 0.0000000000000000e+00  2.3410004712461676e-04 3.2001354043249093e-04 0.0000000000000000e+00  2.0420040708537770e-04 3.1173671663385573e-04 0.0000000000000000e+00  2.0648604949647536e-04 3.6441341700800469e-04 0.0000000000000000e+00  2.4524470972123294e-04 3.7933097246114800e-04 0.0000000000000000e+00  2.4230904194652556e-04 3.2339061690610341e-04 0.0000000000000000e+00  2.1916452056170070e-04 3.6183189948230067e-04 0.0000000000000000e+00  2.2431627753718880e-04 3.1259265588807003e-04 0.0000000000000000e+00  5.1628281928218416e-04 3.9204236795896972e-04 0.0000000000000000e+00  4.8959542202880188e-04 3.1825153700664789e-04 0.0000000000000000e+00  4.3780539384260636e-04 3.2304143248260765e-04 0.0000000000000000e+00  4.6854989126067010e-04 3.9489384428432041e-04 0.0000000000000000e+00  5.1882791685897256e-04 3.9478133945021276e-04 0.0000000000000000e+00  4.8959163983103879e-04 3.2011599959518440e-04 0.0000000000000000e+00  4.9739589526633142e-04 3.8536969625033618e-04 0.0000000000000000e+00  4.7537564631892172e-04 3.1477352006598286e-04 0.0000000000000000e+00  7.1873923714680776e-04 3.5031909746248717e-04 0.0000000000000000e+00  6.7158775820528140e-04 2.6849988482577510e-04 0.0000000000000000e+00  6.0619036266654170e-04 2.8635964745238595e-04 0.0000000000000000e+00  6.5958467903763120e-04 3.6497007765282357e-04 0.0000000000000000e+00  7.1364975000513288e-04 3.5012486467410445e-04 0.0000000000000000e+00  6.6275481659320299e-04 2.6821133159598111e-04 0.0000000000000000e+00  6.9842375095140012e-04 3.4980923449474732e-04 0.0000000000000000e+00  6.5278077538470148e-04 2.6860860416787256e-04 0.0000000000000000e+00  8.0937918800187908e-04 2.5531685044961737e-04 0.0000000000000000e+00  7.4472162721950198e-04 1.7655143239372390e-04 0.0000000000000000e+00  6.7848969396925218e-04 2.0438726223692021e-04 0.0000000000000000e+00  7.4826898551179377e-04 2.7972407934955088e-04 0.0000000000000000e+00  7.9956451266774723e-04 2.5232867939304862e-04 0.0000000000000000e+00  7.3491390720612057e-04 1.7568240694957048e-04 0.0000000000000000e+00  7.9264465188207166e-04 2.6104729452857718e-04 0.0000000000000000e+00  7.3048546449301372e-04 1.8158108574725987e-04 0.0000000000000000e+00  7.7182241853547030e-04 1.2453554499339476e-04 0.0000000000000000e+00  6.9859737453370485e-04 6.3518762406335368e-05 0.0000000000000000e+00  6.4989928017999651e-04 9.2874706674192259e-05 0.0000000000000000e+00  7.2408813228668520e-04 1.5233914731694237e-04 0.0000000000000000e+00  7.6397414799665448e-04 1.1602035306688935e-04 0.0000000000000000e+00  6.9603700986389425e-04 5.5989951497498192e-05 0.0000000000000000e+00  7.6346035419831422e-04 1.3443122781639369e-04 0.0000000000000000e+00  6.9422272489453988e-04 6.8512615270065321e-05 0.0000000000000000e+00  6.2652357179693741e-04 -3.1222986413789538e-05 0.0000000000000000e+00  5.6160568654986163e-04 -6.9244471320445335e-05 0.0000000000000000e+00  5.2408644632283372e-04 -3.2775924019733311e-05 0.0000000000000000e+00  5.9152608784648322e-04 1.2832618843954978e-06 0.0000000000000000e+00  6.1203799473885971e-04 -3.7728208517772712e-05 0.0000000000000000e+00  5.5006945098578001e-04 -7.1525096766371463e-05 0.0000000000000000e+00  6.2346599558763373e-04 -1.5990318587126475e-05 0.0000000000000000e+00  5.5733349713954711e-04 -5.7771448574135546e-05 0.0000000000000000e+00  3.8026439648475513e-04 -1.7838433598136883e-04 0.0000000000000000e+00  3.2990388390375519e-04 -1.8512972768043050e-04 0.0000000000000000e+00  3.1757776958152599e-04 -1.5421518689174527e-04 0.0000000000000000e+00  3.6742568150399527e-04 -1.5019011359721922e-04 0.0000000000000000e+00  3.6721722947091274e-04 -1.8599477789575159e-04 0.0000000000000000e+00  3.2113755522201462e-04 -1.8865352630870359e-04 0.0000000000000000e+00  3.8583776903284672e-04 -1.6204686944474973e-04 0.0000000000000000e+00  3.3350567795696921e-04 -1.7405427966381878e-04 0.0000000000000000e+00  7.7151309904406723e-05 -2.9955648725008872e-04 0.0000000000000000e+00  4.9800621619133627e-05 -2.7446791000285744e-04 0.0000000000000000e+00  6.1433181116784662e-05 -2.5137503144287101e-04 0.0000000000000000e+00  8.7366538982085271e-05 -2.7815786520878733e-04 0.0000000000000000e+00  6.6235580427465414e-05 -3.0592580640890696e-04 0.0000000000000000e+00  4.3149373916460176e-05 -2.7673808937433552e-04 0.0000000000000000e+00  8.9657282358758796e-05 -2.8346228598725466e-04 0.0000000000000000e+00  5.8441219791674408e-05 -2.6339435345991966e-04 0.0000000000000000e+00  -2.3496229878722279e-04 -3.7334950871309891e-04 0.0000000000000000e+00  -2.3438034456443418e-04 -3.2039550550005610e-04 0.0000000000000000e+00  -2.0322281241755993e-04 -3.1077095361819183e-04 0.0000000000000000e+00  -2.0565115951069670e-04 -3.6405872467265744e-04 0.0000000000000000e+00  -2.4293975030429218e-04 -3.7857656116493943e-04 0.0000000000000000e+00  -2.3948568848367095e-04 -3.2237146432065203e-04 0.0000000000000000e+00  -2.2004465584220663e-04 -3.6183604088386686e-04 0.0000000000000000e+00  -2.2565323505944308e-04 -3.1287853160179665e-04 0.0000000000000000e+00  -5.1270230488883095e-04 -3.9251735694197033