<?xml version="1.0"?>
<VTKFile type="UnstructuredGrid"  version="0.1"  >
<UnstructuredGrid>
<Piece  NumberOfPoints="5328" NumberOfCells="20142">
<Points>
<DataArray  type="Float64"  NumberOfComponents="3"  format="ascii">0.175 0 0  0.18445 0 0  0.175 0.00945 0  0.16555 0 0  0.193 0 0  0.175 0.018 0  0.157 0 0  0.175 0 0.006  0.193 0 0.006  0.175 0.018 0.006  0.157 0 0.006  0.175 -0.00945 0  0.175 -0.018 0  0.175 -0.018 0.006  0.1529482566072435 0.0633532422280406 0  0.1704095797717068 0.07058595909974082 0  0.1616789181894752 0.06696960066389071 0  0.1580625597536251 0.07570026224612236 0  0.145049086604272 0.0600812988813191 0  0.1547906164069036 0.08359943224909387 0  0.1783087497746783 0.07385790244646231 0  0.1783087497746783 0.07385790244646231 0.006  0.145049086604272 0.0600812988813191 0.006  0.1547906164069036 0.08359943224909387 0.006  0.1616789181894752 0.06696960066389071 0.006  0.1652952766253253 0.05823893908165905 0  0.1685672199720468 0.05033976907868755 0  0.1685672199720468 0.05033976907868755 0.006  0.1170615276254329 0.1170615276254329 0  0.1304258457898587 0.1304258457898587 0  0.1237436867076458 0.1237436867076458 0  0.117061527625433 0.1304258457898587 0  0.111015764646288 0.111015764646288 0  0.111015764646288 0.1364716087690037 0  0.1364716087690037 0.1364716087690036 0  0.1364716087690037 0.1364716087690036 0.006  0.111015764646288 0.111015764646288 0.006  0.111015764646288 0.1364716087690037 0.006  0.1237436867076458 0.1237436867076458 0.006  0.1304258457898587 0.1170615276254329 0  0.1364716087690037 0.1110157646462879 0  0.1364716087690037 0.1110157646462879 0.006  0.06335324222804062 0.1529482566072435 0  0.07058595909974082 0.1704095797717068 0  0.06696960066389071 0.1616789181894752 0  0.05823893908165905 0.1652952766253253 0  0.06008129888131911 0.145049086604272 0  0.05033976907868755 0.1685672199720468 0  0.07385790244646233 0.1783087497746783 0  0.07385790244646233 0.1783087497746783 0.006  0.06008129888131911 0.145049086604272 0.006  0.05033976907868755 0.1685672199720468 0.006  0.06696960066389071 0.1616789181894752 0.006  0.07570026224612236 0.1580625597536251 0  0.08359943224909387 0.1547906164069036 0  0.08359943224909387 0.1547906164069036 0.006  1.013701387994221e-17 0.16555 0  1.129430510513647e-17 0.18445 0  1.071565949253934e-17 0.175 0  -0.00944999999999999 0.175 0  9.613477373306723e-18 0.157 0  -0.01799999999999999 0.175 0  1.181784161177196e-17 0.193 0  1.181784161177196e-17 0.193 0.006  9.613477373306723e-18 0.157 0.006  -0.01799999999999999 0.175 0.006  1.071565949253934e-17 0.175 0.006  0.00945000000000001 0.175 0  0.01800000000000001 0.175 0  0.01800000000000001 0.175 0.006  -0.06335324222804059 0.1529482566072435 0  -0.0705859590997408 0.1704095797717068 0  -0.0669696006638907 0.1616789181894752 0  -0.07570026224612236 0.1580625597536251 0  -0.06008129888131909 0.145049086604272 0  -0.08359943224909386 0.1547906164069036 0  -0.07385790244646231 0.1783087497746783 0  -0.07385790244646231 0.1783087497746783 0.006  -0.06008129888131909 0.145049086604272 0.006  -0.08359943224909386 0.1547906164069036 0.006  -0.0669696006638907 0.1616789181894752 0.006  -0.05823893908165904 0.1652952766253253 0  -0.05033976907868754 0.1685672199720468 0  -0.05033976907868754 0.1685672199720468 0.006  -0.1170615276254329 0.1170615276254329 0  -0.1304258457898587 0.1304258457898587 0  -0.1237436867076458 0.1237436867076458 0  -0.1304258457898587 0.117061527625433 0  -0.111015764646288 0.111015764646288 0  -0.1364716087690037 0.111015764646288 0  -0.1364716087690036 0.1364716087690037 0  -0.1364716087690036 0.1364716087690037 0.006  -0.111015764646288 0.111015764646288 0.006  -0.1364716087690037 0.111015764646288 0.006  -0.1237436867076458 0.1237436867076458 0.006  -0.1170615276254329 0.1304258457898587 0  -0.1110157646462879 0.1364716087690037 0  -0.1110157646462879 0.1364716087690037 0.006  -0.1529482566072435 0.06335324222804062 0  -0.1704095797717068 0.07058595909974083 0  -0.1616789181894752 0.06696960066389072 0  -0.1652952766253253 0.05823893908165906 0  -0.145049086604272 0.06008129888131911 0  -0.1685672199720468 0.05033976907868756 0  -0.1783087497746783 0.07385790244646234 0  -0.1783087497746783 0.07385790244646234 0.006  -0.145049086604272 0.06008129888131911 0.006  -0.1685672199720468 0.05033976907868756 0.006  -0.1616789181894752 0.06696960066389072 0.006  -0.1580625597536251 0.07570026224612239 0  -0.1547906164069036 0.08359943224909389 0  -0.1547906164069036 0.08359943224909389 0.006  -0.16555 2.027402775988443e-17 0  -0.18445 2.258861021027293e-17 0  -0.175 2.143131898507868e-17 0  -0.175 -0.009449999999999979 0  -0.157 1.922695474661345e-17 0  -0.175 -0.01799999999999998 0  -0.193 2.363568322354391e-17 0  -0.193 2.363568322354391e-17 0.006  -0.157 1.922695474661345e-17 0.006  -0.175 -0.01799999999999998 0.006  -0.175 2.143131898507868e-17 0.006  -0.175 0.009450000000000021 0  -0.175 0.01800000000000002 0  -0.175 0.01800000000000002 0.006  -0.1529482566072435 -0.06335324222804059 0  -0.1704095797717069 -0.07058595909974079 0  -0.1616789181894752 -0.06696960066389068 0  -0.1580625597536251 -0.07570026224612235 0  -0.145049086604272 -0.06008129888131908 0  -0.1547906164069036 -0.08359943224909384 0  -0.1783087497746783 -0.0738579024464623 0  -0.1783087497746783 -0.0738579024464623 0.006  -0.145049086604272 -0.06008129888131908 0.006  -0.1547906164069036 -0.08359943224909384 0.006  -0.1616789181894752 -0.06696960066389068 0.006  -0.1652952766253253 -0.05823893908165902 0  -0.1685672199720468 -0.05033976907868752 0  -0.1685672199720468 -0.05033976907868752 0.006  -0.117061527625433 -0.1170615276254329 0  -0.1304258457898587 -0.1304258457898587 0  -0.1237436867076458 -0.1237436867076458 0  -0.117061527625433 -0.1304258457898587 0  -0.111015764646288 -0.111015764646288 0  -0.111015764646288 -0.1364716087690037 0  -0.1364716087690037 -0.1364716087690036 0  -0.1364716087690037 -0.1364716087690036 0.006  -0.111015764646288 -0.111015764646288 0.006  -0.111015764646288 -0.1364716087690037 0.006  -0.1237436867076458 -0.1237436867076458 0.006  -0.1304258457898587 -0.1170615276254329 0  -0.1364716087690037 -0.1110157646462879 0  -0.1364716087690037 -0.1110157646462879 0.006  -0.0633532422280407 -0.1529482566072435 0  -0.07058595909974091 -0.1704095797717068 0  -0.06696960066389081 -0.1616789181894751 0  -0.05823893908165915 -0.1652952766253252 0  -0.06008129888131918 -0.145049086604272 0  -0.05033976907868765 -0.1685672199720468 0  -0.07385790244646243 -0.1783087497746783 0  -0.07385790244646243 -0.1783087497746783 0.006  -0.06008129888131918 -0.145049086604272 0.006  -0.05033976907868765 -0.1685672199720468 0.006  -0.06696960066389081 -0.1616789181894751 0.006  -0.07570026224612246 -0.158062559753625 0  -0.08359943224909397 -0.1547906164069035 0  -0.08359943224909397 -0.1547906164069035 0.006  -3.041104163982664e-17 -0.16555 0  -3.388291531540939e-17 -0.18445 0  -3.214697847761802e-17 -0.175 0  0.009449999999999967 -0.175 0  -2.884043211992017e-17 -0.157 0  0.01799999999999997 -0.175 0  -3.545352483531587e-17 -0.193 0  -3.545352483531587e-17 -0.193 0.006  -2.884043211992017e-17 -0.157 0.006  0.01799999999999997 -0.175 0.006  -3.214697847761802e-17 -0.175 0.006  -0.009450000000000033 -0.175 0  -0.01800000000000003 -0.175 0  -0.01800000000000003 -0.175 0.006  0.06335324222804065 -0.1529482566072435 0  0.07058595909974086 -0.1704095797717068 0  0.06696960066389075 -0.1616789181894752 0  0.07570026224612242 -0.1580625597536251 0  0.06008129888131913 -0.145049086604272 0  0.08359943224909391 -0.1547906164069035 0  0.07385790244646236 -0.1783087497746783 0  0.07385790244646236 -0.1783087497746783 0.006  0.06008129888131913 -0.145049086604272 0.006  0.08359943224909391 -0.1547906164069035 0.006  0.06696960066389075 -0.1616789181894752 0.006  0.05823893908165909 -0.1652952766253253 0  0.05033976907868759 -0.1685672199720468 0  0.05033976907868759 -0.1685672199720468 0.006  0.1170615276254329 -0.117061527625433 0  0.1304258457898587 -0.1304258457898587 0  0.1237436867076458 -0.1237436867076458 0  0.1304258457898587 -0.117061527625433 0  0.1110157646462879 -0.111015764646288 0  0.1364716087690036 -0.111015764646288 0  0.1364716087690036 -0.1364716087690037 0  0.1364716087690036 -0.1364716087690037 0.006  0.1110157646462879 -0.111015764646288 0.006  0.1364716087690036 -0.111015764646288 0.006  0.1237436867076458 -0.1237436867076458 0.006  0.1170615276254329 -0.1304258457898587 0  0.1110157646462879 -0.1364716087690037 0  0.1110157646462879 -0.1364716087690037 0.006  0.1529482566072435 -0.0633532422280407 0  0.1704095797717068 -0.07058595909974093 0  0.1616789181894751 -0.06696960066389081 0  0.1652952766253252 -0.05823893908165915 0  0.145049086604272 -0.06008129888131919 0  0.1685672199720468 -0.05033976907868765 0  0.1783087497746783 -0.07385790244646244 0  0.1783087497746783 -0.07385790244646244 0.006  0.145049086604272 -0.06008129888131919 0.006  0.1685672199720468 -0.05033976907868765 0.006  0.1616789181894751 -0.06696960066389081 0.006  0.158062559753625 -0.07570026224612246 0  0.1547906164069035 -0.08359943224909397 0  0.1547906164069035 -0.08359943224909397 0.006  0.1816821590571039 0.006682159107321884 0  0.1683178408904039 0.006682159054829612 0  0.1905884572626798 0.009000000009422473 0  0.1839999999697972 0.01558845728555746 0  0.1659999999713115 0.01558845725155659 0  0.1594115427217315 0.008999999982422135 0  0.1659999999999918 0 0.006  0.1839999999999864 0 0.006  0.1905884572626798 0.009000000009422473 0.006  0.1839999999697972 0.01558845728555746 0.006  0.1659999999713115 0.01558845725155659 0.006  0.1594115427217315 0.008999999982422135 0.006  0.1816821590822129 -0.006682159082212883 0  0.1683178409177871 -0.006682159082212875 0  0.1594115427217313 -0.008999999982421729 0  0.1659999999713265 -0.01558845725156525 0  0.1839999999697972 -0.01558845728555747 0  0.1905884572626846 -0.009000000009414219 0  0.1839999999697972 -0.01558845728555747 0.006  0.1905884572626846 -0.00
[...]
<PointData  Vectors="f_270"> 
<DataArray  type="Float64"  Name="f_270"  NumberOfComponents="3" format="ascii">9.4566808789265799e+00 -6.1523005021166512e-02 0.0000000000000000e+00  9.5811724930151314e+00 -7.0201205046151338e-01 0.0000000000000000e+00  9.6631584886126696e+00 -1.1202186874658422e+00 0.0000000000000000e+00  9.5620979415487746e+00 -6.6609644774784660e-01 0.0000000000000000e+00  9.3224076202894146e+00 -1.3352394600114694e+00 0.0000000000000000e+00  9.2263501119255391e+00 -2.2708203755552070e+00 0.0000000000000000e+00  9.3013160367843053e+00 -1.3337986355427500e+00 0.0000000000000000e+00  9.3475648242655396e+00 -1.0319823874568466e+00 0.0000000000000000e+00  8.9977402059470588e+00 -1.2390728892073575e+00 0.0000000000000000e+00  8.9363669891315016e+00 -2.1755195725885246e+00 0.0000000000000000e+00  8.9486439767250747e+00 -1.2293999241104987e+00 0.0000000000000000e+00  9.5525639531619451e+00 -2.7781233538342809e-01 0.0000000000000000e+00  8.9925831549887949e+00 -3.6926261795733134e-01 0.0000000000000000e+00  8.7136198866728147e+00 -2.5330034773395471e-01 0.0000000000000000e+00  9.7585486067125551e+00 -5.7640123396852365e+00 0.0000000000000000e+00  9.7606019147904028e+00 -5.8126177802839809e+00 0.0000000000000000e+00  9.9670784247898592e+00 -5.0716697621835181e+00 0.0000000000000000e+00  9.7304171095528851e+00 -6.1934030279542176e+00 0.0000000000000000e+00  9.1260281354673989e+00 -6.3261764381611130e+00 0.0000000000000000e+00  8.7811725615547367e+00 -7.0581681550499651e+00 0.0000000000000000e+00  9.1484394530888711e+00 -6.3404747637431225e+00 0.0000000000000000e+00  8.8525372363486348e+00 -6.0651675083895480e+00 0.0000000000000000e+00  8.8046079563180779e+00 -6.0273645339932118e+00 0.0000000000000000e+00  8.5250792102130468e+00 -6.7996513032734294e+00 0.0000000000000000e+00  9.3365347440598150e+00 -6.0343060771158683e+00 0.0000000000000000e+00  9.8538011718367411e+00 -5.4336206053368343e+00 0.0000000000000000e+00  9.0868558430679052e+00 -5.3727669292820091e+00 0.0000000000000000e+00  8.8336292459370664e+00 -5.0956451804949365e+00 0.0000000000000000e+00  8.4319300453185040e+00 -9.9586537978125325e+00 0.0000000000000000e+00  8.4142240791218850e+00 -1.0012876914966467e+01 0.0000000000000000e+00  8.9212704101432525e+00 -9.2848076274059927e+00 0.0000000000000000e+00  8.2734419647673931e+00 -1.0328821270063896e+01 0.0000000000000000e+00  7.5297768298570507e+00 -1.0335289267220336e+01 0.0000000000000000e+00  6.9697569380348652e+00 -1.0750511033400677e+01 0.0000000000000000e+00  7.5486061795228840e+00 -1.0358717411472664e+01 0.0000000000000000e+00  7.3318977084795609e+00 -9.9489265048993722e+00 0.0000000000000000e+00  7.2942915274528861e+00 -9.8904641986726602e+00 0.0000000000000000e+00  6.7881755360012734e+00 -1.0374313189968975e+01 0.0000000000000000e+00  7.8695485669092449e+00 -1.0095803725323616e+01 0.0000000000000000e+00  8.6216609180542907e+00 -9.7262682939380856e+00 0.0000000000000000e+00  7.7563012357197447e+00 -9.5406623056123916e+00 0.0000000000000000e+00  7.5887103558947411e+00 -9.1429053696171785e+00 0.0000000000000000e+00  5.8275541883902475e+00 -1.2654224786527742e+01 0.0000000000000000e+00  5.7938670101523426e+00 -1.2705092591137127e+01 0.0000000000000000e+00  6.5249854972246482e+00 -1.2100136611816206e+01 0.0000000000000000e+00  5.5243396601444434e+00 -1.2930640410450245e+01 0.0000000000000000e+00  4.7925222504892417e+00 -1.2781171997762216e+01 0.0000000000000000e+00  4.1013021676152359e+00 -1.2793199888236348e+01 0.0000000000000000e+00  4.8052508235118507e+00 -1.2810891965255683e+01 0.0000000000000000e+00  4.6993058222282675e+00 -1.2327058415664590e+01 0.0000000000000000e+00  4.6772567392558129e+00 -1.2255915566680910e+01 0.0000000000000000e+00  4.0288449407373221e+00 -1.2367784306769575e+01 0.0000000000000000e+00  5.2101411430825344e+00 -1.2633186904272504e+01 0.0000000000000000e+00  6.0614594633694532e+00 -1.2621844792159692e+01 0.0000000000000000e+00  5.2481293513568756e+00 -1.2227865804047184e+01 0.0000000000000000e+00  5.1927427274244966e+00 -1.1795568811318406e+01 0.0000000000000000e+00  2.3024916740616779e+00 -1.3444038784868679e+01 0.0000000000000000e+00  2.2892604407825932e+00 -1.3449909099206916e+01 0.0000000000000000e+00  3.1300665160800221e+00 -1.3064765956749213e+01 0.0000000000000000e+00  1.9502254361554570e+00 -1.3497751487262953e+01 0.0000000000000000e+00  1.3115077946523552e+00 -1.3294466565831824e+01 0.0000000000000000e+00  6.1307030454678746e-01 -1.2904272085403331e+01 0.0000000000000000e+00  1.3265312346805536e+00 -1.3304342718363538e+01 0.0000000000000000e+00  1.3483339906333658e+00 -1.2821805069055259e+01 0.0000000000000000e+00  1.3449500463310247e+00 -1.2750675140139368e+01 0.0000000000000000e+00  6.5077874446763717e-01 -1.2483335688437464e+01 0.0000000000000000e+00  1.7548674945205383e+00 -1.3237677218493017e+01 0.0000000000000000e+00  2.6132877339769669e+00 -1.3522447682230167e+01 0.0000000000000000e+00  1.9415437889174856e+00 -1.3097049533067802e+01 0.0000000000000000e+00  1.9950035643957083e+00 -1.2660061450464704e+01 0.0000000000000000e+00  -1.5199247173147843e+00 -1.2154689948691772e+01 0.0000000000000000e+00  -1.5685962466313088e+00 -1.2177897990448399e+01 0.0000000000000000e+00  -7.4287350934172236e-01 -1.2065427640742985e+01 0.0000000000000000e+00  -1.9221816989425264e+00 -1.2040493188826806e+01 0.0000000000000000e+00  -2.3498691608357776e+00 -1.1768422909516586e+01 0.0000000000000000e+00  -2.9677302542629227e+00 -1.1071658833313393e+01 0.0000000000000000e+00  -2.3539134339808911e+00 -1.1796259724702853e+01 0.0000000000000000e+00  -2.2077066606727436e+00 -1.1385426428054373e+01 0.0000000000000000e+00  -2.1915919365651217e+00 -1.1322124658499463e+01 0.0000000000000000e+00  -2.8254251534674788e+00 -1.0715761609931688e+01 0.0000000000000000e+00  -1.9692768050934260e+00 -1.1852009352801684e+01 0.0000000000000000e+00  -1.2326855311759295e+00 -1.2394761926851281e+01 0.0000000000000000e+00  -1.6691371934765002e+00 -1.1970586100106924e+01 0.0000000000000000e+00  -1.5015767100644737e+00 -1.1609416947631825e+01 0.0000000000000000e+00  -5.1292890478130548e+00 -9.0265601247066929e+00 0.0000000000000000e+00  -5.1749258616671723e+00 -9.0296242309783175e+00 0.0000000000000000e+00  -4.4916785975945794e+00 -9.2089096627463736e+00 0.0000000000000000e+00  -5.4468224723332153e+00 -8.7308939970193826e+00 0.0000000000000000e+00  -5.6548454552923086e+00 -8.4549363421582484e+00 0.0000000000000000e+00  -6.1026364451566240e+00 -7.5492532519483166e+00 0.0000000000000000e+00  -5.6666581241330451e+00 -8.4755323512378666e+00 0.0000000000000000e+00  -5.4196883248829417e+00 -8.2012640882223113e+00 0.0000000000000000e+00  -5.3866377305860613e+00 -8.1570152231308413e+00 0.0000000000000000e+00  -5.8711809136432471e+00 -7.3025956713085112e+00 0.0000000000000000e+00  -5.3835318984774707e+00 -8.6439670248652387e+00 0.0000000000000000e+00  -4.9404414456829464e+00 -9.3898335632144914e+00 0.0000000000000000e+00  -4.9953423444523697e+00 -8.9943579240235181e+00 0.0000000000000000e+00  -4.7559749608656681e+00 -8.7789166093318567e+00 0.0000000000000000e+00  -7.9862593739229988e+00 -4.5156296943749252e+00 0.0000000000000000e+00  -7.9925093633685522e+00 -4.5091774968263936e+00 0.0000000000000000e+00  -7.5576658108426820e+00 -4.9540188820774995e+00 0.0000000000000000e+00  -8.1912545484120081e+00 -4.1150576466160729e+00 0.0000000000000000e+00  -8.1142688551425532e+00 -3.8553810743024957e+00 0.0000000000000000e+00  -8.2968960213283047e+00 -2.8610513296015219e+00 0.0000000000000000e+00  -8.1169068410730869e+00 -3.8675914418874591e+00 0.0000000000000000e+00  -7.8054248293456165e+00 -3.7712187370531844e+00 0.0000000000000000e+00  -7.7613463811215277e+00 -3.7522120655622437e+00 0.0000000000000000e+00  -8.0136552264035483e+00 -2.7767575930943669e+00 0.0000000000000000e+00  -7.9775252180062868e+00 -4.1231957639301440e+00 0.0000000000000000e+00  -7.8516467162819170e+00 -4.9340980817676439e+00 0.0000000000000000e+00  -7.5739342128798288e+00 -4.6699449076806561e+00 0.0000000000000000e+00  -7.2920098372130546e+00 -4.6159597729846666e+00 0.0000000000000000e+00  -9.5834997402989295e+00 6.8599470880047864e-01 0.0000000000000000e+00  -9.5844419565220349e+00 7.0032235350511030e-01 0.0000000000000000e+00  -9.4626357219297841e+00 5.8373015664454853e-02 0.0000000000000000e+00  -9.6800183669224857e+00 1.1341034401566303e+00 0.0000000000000000e+00  -9.3134760461107060e+00 1.3436132033568460e+00 0.0000000000000000e+00  -9.2215727190261223e+00 2.2673882298820005e+00 0.0000000000000000e+00  -9.3230911564337831e+00 1.3358260506198822e+00 0.0000000000000000e+00  -8.9961777537878689e+00 1.2391935789962722e+00 0.0000000000000000e+00  -8.9466343954501131e+00 1.2290903529552366e+00 0.0000000000000000e+00  -8.9303303723950904e+00 2.1756867615724222e+00 0.0000000000000000e+00  -9.3494317184858602e+00 1.0301736424897443e+00 0.0000000000000000e+00  -9.5532100351766189e+00 2.6044895876292151e-01 0.0000000000000000e+00  -9.0068197241659345e+00 3.7436606415496604e-01 0.0000000000000000e+00  -8.7128148890165811e+00 2.5719800346863714e-01 0.0000000000000000e+00  -9.7338193204144083e+00 5.8142129872523869e+00 0.0000000000000000e+00  -9.7242199909067200e+00 5.8004665066937005e+00 0.0000000000000000e+00  -9.9343371328309864e+00 5.0637844734551560e+00 0.0000000000000000e+00  -9.6940453810525753e+00 6.1836670426423472e+00 0.0000000000000000e+00  -9.1076918638786815e+00 6.3468802452809134e+00 0.0000000000000000e+00  -8.7489979914303060e+00 7.0503199254998998e+00 0.0000000000000000e+00  -9.1153592122535425e+00 6.3310461008773151e+00 0.0000000000000000e+00  -8.8220431142479860e+00 6.0565006512583288e+00 0.0000000000000000e+00  -8.7755947801807146e+00 6.0211153328438387e+00 0.0000000000000000e+00  -8.4949429927239315e+00 6.7919844583460520e+00 0.0000000000000000e+00  -9.3030101553916218e+00 6.0238791022704934e+00 0.0000000000000000e+00  -9.8203011853441176e+00 5.4217877040044051e+00 0.0000000000000000e+00  -9.0574886466909561e+00 5.3635795676284461e+00 0.0000000000000000e+00  -8.8064181186537773e+00 5.0878133475014762e+00 0.0000000000000000e+00  -8.4094517479572257e+00 9.9707129748389107e+00 0.0000000000000000e+00  -8.3909247500484767e+00 1.0022449516168779e+01 0.0000000000000000e+00  -8.9001413941936089e+00 9.2966533151785402e+00 0.0000000000000000e+00  -8.2518484815461974e+00 1.0313333369931684e+01 0.0000000000000000e+00  -7.5065308921805345e+00 1.0344860047264920e+01 0.0000000000000000e+00  -6.9464412021436477e+00 1.0764616646856203e+01 0.0000000000000000e+00  -7.5251134571405833e+00 1.0369107336116583e+01 0.0000000000000000e+00  -7.3094166751811116e+00 9.9577946858069879e+00 0.0000000000000000e+00  -7.2715559525682441e+00 9.8991221936313867e+00 0.0000000000000000e+00  -6.7687064622910613e+00 1.0382533501711666e+01 0.0000000000000000e+00  -7.8464646655678276e+00 1.0106347036626826e+01 0.0000000000000000e+00  -8.5988042749634221e+00 9.7643546045703022e+00 0.0000000000000000e+00  -7.7346795418612126e+00 9.5417435869227010e+00 0.0000000000000000e+00  -7.5642385421059704e+00 9.1485351804638508e+00 0.0000000000000000e+00  -5.7890860688886860e+00 1.2710168466876102e+01 0.0000000000000000e+00  -5.7744118560662470e+00 1.2720071523124016e+01 0.0000000000000000e+00  -6.5063716488782299e+00 1.2117757529496798e+01 0.0000000000000000e+00  -5.5043526756709324e+00 1.2945816069827307e+01 0.0000000000000000e+00  -4.7660893629440046e+00 1.2818927866091995e+01 0.0000000000000000e+00  -4.0803812534498674e+00 1.2806660508141059e+01 0.0000000000000000e+00  -4.7838410759038572e+00 1.2824930451509960e+01 0.0000000000000000e+00  -4.6786256379889171e+00 1.2340074482254167e+01 0.0000000000000000e+00  -4.6561481115735219e+00 1.2270217784117404e+01 0.0000000000000000e+00  -4.0083914265017260e+00 1.2380563103304713e+01 0.0000000000000000e+00  -5.1899962962292321e+00 1.2647663763890050e+01 0.0000000000000000e+00  -6.0342359595294921e+00 1.2662969019501766e+01 0.0000000000000000e+00  -5.2289415198433584e+00 1.2239629539461532e+01 0.0000000000000000e+00  -5.1707213366450313e+00 1.1807341472620816e+01 0.0000000000000000e+00  -2.2852531772680886e+00 1.3465568934394915e+01 0.0000000000000000e+00  -2.2695703964946534e+00 1.3470599074363824e+01 0.0000000000000000e+00  -3.1097571316768464e+00 1.3085398858651347e+01 0.0000000000000000e+00  -1.9447278937385710e+00 1.3495266329538838e+01 0.0000000000000000e+00  -1.2909110018068239e+00 1.3311643087549221e+01 0.0000000000000000e+00  -5.9295984968200366e-01 1.2916515768301307e+01 0.0000000000000000e+00  -1.3060373827107887e+00 1.3321505899498229e+01 0.0000000000000000e+00  -1.3280294498786793e+00 1.2836895432182107e+01 0.0000000000000000e+00  -1.3247561639406538e+00 1.2765282513587273e+01 0.0000000000000000e+00  -6.3383376907961020e-01 1.2493607245409180e+01 0.0000000000000000e+00  -1.7339474991103281e+00 1.3255503984896798e+01 0.0000000000000000e+00  -2.5937492250617140e+00 1.3543995096017532e+01 0.0000000000000000e+00  -1.9210203865104003e+00 1.3115347681627714e+01 0.0000000000000000e+00  -1.9749321924969301e+00 1.2676365316622267e+01 0.0000000000000000e+00  1.5665257138144750e+00 1.2140972154730340e+01 0.0000000000000000e+00  1.5828255287281541e+00 1.2138994181012192e+01 0.0000000000000000e+00  7.5851385917171921e-01 1.2029323320039577e+01 0.0000000000000000e+00  1.8699674421138033e+00 1.1969974373307824e+01 0.0000000000000000e+00  2.3818953078579566e+00 1.1753701204967276e+01 0.0000000000000000e+00  2.9984251261899058e+00 1.1066211776020959e+01 0.0000000000000000e+00  2.3717088826993562e+00 1.1765489195971391e+01 0.0000000000000000e+00  2.2249898884410402e+00 1.1358960865089783e+01 0.0000000000000000e+00  2.2095926683091944e+00 1.1297769543188643e+01 0.0000000000000000e+00  2.8486444129186599e+00 1.0697031461400210e+01 0.0000000000000000e+00  1.9858359929635212e+00 1.1819321127786706e+01 0.0000000000000000e+00  1.2701955107593206e+00 1.2374933208109477e+01 0.0000000000000000e+00  1.6817273381948314e+00 1.1943904555146043e+01 0.0000000000000000e+00  1.5188777307446293e+00 1.1587095045044441e+01 0.0000000000000000e+00  5.1514746884984142e+00 9.0407405827933633e+00 0.0000000000000000e+00  5.1980813707795139e+00 9.0422419756695280e+00 0.0000000000000000e+00  4.5131490009175055e+00 9.2223183248816536e+00 0.0000000000000000e+00  5.4963254329779350e+00 8.7380963665997360e+00 0.0000000000000000e+00  5.6782664212416183e+00 8.4665754524973629e+00 0.0000000000000000e+00  6.1108230839398425e+00 7.5497266819103128e+00 0.0000000000000000e+00  5.6913770049233579e+00 8.4870787017811384e+00 0.0000000000000000e+00  5.4427276070927686e+00 8.2110512933501258e+00 0.0000000000000000e+00  5.4088072253993307e+00 8.1664851815233295e+00 0.0000000000000000e+00  5.8837992267524069e+00 7.3148728188075438e+00 0.0000000000000000e+00  5.4072363504472856e+00 8.6558356563014414e+00 0.0000000000000000e+00  4.9445246768460205e+00 9.4039759060946633e+00 0.0000000000000000e+00  5.0319283007417592e+00 9.0148333935929763e+00 0.0000000000000000e+00  4.7844225410384116e+00 8.7858419782091612e+00 0.0000000000000000e+00  7.9710759511105556e+00 4.5312062292851882e+00 0.0000000000000000e+00  8.0066607802899021e+00 4.5121934523558345e+00 0.0000000000000000e+00  7.5691241429903409e+00 4.9564126206618369e+00 0.0000000000000000e+00  8.2216776785496855e+00 4.0985695491993130e+00 0.0000000000000000e+00  8.1131588926845506e+00 3.8597194389961942e+00 0.0000000000000000e+00  8.2941370064004296e+00 2.8604398818525816e+00 0.0000000000000000e+00  8.1320417440395314e+00 3.8694032352661356e+00 0.0000000000000000e+00  7.8205872650441375e+00 3.7726703222741169e+00 0.0000000000000000e+00  7.7750242304080057e+00 3.7545045890710647e+00 0.0000000000000000e+00  8.0205130080244835e+00 2.7840326338437520e+00 0.0000000000000000e+00  7.9926356925389310e+00 4.1248878086995191e+00 0.0000000000000000e+00  7.8534025065872637e+00 4.9468090127899345e+00 0.0000000000000000e+00  7.6057692015864085e+00 4.6777506283405392e+00 0.0000000000000000e+00  7.3124927860704680e+00 4.6178655770846175e+00 0.0000000000000000e+00  9.6819517833935400e+00 -1.0407926215527949e+00 0.0000000000000000e+00  9.7106193961262637e+00 -1.0735579869629051e+00 0.0000000000000000e+00  9.2524481820430822e+00 -1.7442859242974547e+00 0.0000000000000000e+00  9.2330519819405072e+00 -2.0909838593877250e+00 0.0000000000000000e+00  9.2664336740274837e+00 -2.1863993905174257e+00 0.0000000000000000e+00  9.2374014570068930e+00 -1.8310990959355842e+00 0.0000000000000000e+00  9.3053440169313681e+00 -1.1794474514525917e+00 0.0000000000000000e+00  9.3021794839515053e+00 -1.1816673214049060e+00 0.0000000000000000e+00  9.0004306194744164e+00 -1.6760974629786685e+00 0.0000000000000000e+00  8.9251686014133167e+00 -1.9951197488796284e+00 0.0000000000000000e+00  8.9052587226811788e+00 -2.0958537292940509e+00 0.0000000000000000e+00  8.9806430045900392e+00 -1.7503407046002404e+00 0.0000000000000000e+00  9.5782494162280596e+00 -4.3274743432001483e-01 0.0000000000000000e+00  9.6217716986273469e+00 -4.5047435231639338e-01 0.0000000000000000e+00  9.1195759577096691e+00 -8.0460916250829684e-01 0.0000000000000000e+00  9.0705410532013317e+00 -4.7668611391283056e-01 0.0000000000000000e+00  9.0652554244890666e+00 -5.5346468163434781e-01 0.0000000000000000e+00  9.1532175407984013e+00 -8.8838001028785119e-01 0.0000000000000000e+00  8.7474405752545970e+00 -4.2974174541473148e-01 0.0000000000000000e+00  8.8983651829047581e+00 -7.9239673411499334e-01 0.0000000000000000e+00  8.8611424731912400e+00 -7.1000788932139214e-01 0.0000000000000000e+00  8.7022071368490970e+00 -3.2083368503375365e-01 0.0000000000000000e+00  9.7585902322730878e+00 -6.1543669025217058e+00 0.0000000000000000e+00  9.7760183679938013e+00 -6.1996365896949328e+00 0.0000000000000000e+00  8.9200834797992066e+00 -6.6992220855346760e+00 0.0000000000000000e+00  8.8464363968095192e+00 -7.0111860869994498e+00 0.0000000000000000e+00  8.8417181883054710e+00 -6.9117876215377949e+00 0.0000000000000000e+00  8.9618501311476582e+00 -6.6360670397708850e+00 0.0000000000000000e+00  9.2088013326277824e+00 -6.1677823024053842e+00 0.0000000000000000e+00  9.2125327017805070e+00 -6.1663317487756464e+00 0.0000000000000000e+00  8.5662690751044508e+00 -6.6436597407278866e+00 0.0000000000000000e+00  8.7322595723927758e+00 -6.4261619366689997e+00 0.0000000000000000e+00  8.6903627777213508e+00 -6.4751612679568122e+00 0.0000000000000000e+00  8.5165335121045533e+00 -6.7151726835119554e+00 0.0000000000000000e+00  9.8377262013676852e+00 -5.5679715180260096e+00 0.0000000000000000e+00  9.8620398992768354e+00 -5.6421233044133245e+00 0.0000000000000000e+00  9.0856271826871744e+00 -5.7874648290481403e+00 0.0000000000000000e+00  9.1222526453393922e+00 -5.4913807635721339e+00 0.0000000000000000e+00  9.1094817585156260e+00 -5.5780922948804630e+00 0.0000000000000000e+00  9.0989394292358909e+00 -5.8773417574263220e+00 0.0000000000000000e+00  8.8160434504642087e+00 -5.2508310267322207e+00 0.0000000000000000e+00  8.8736901816720355e+00 -5.6417372062310767e+00 0.0000000000000000e+00  8.8580673529123466e+00 -5.5510788995934455e+00 0.0000000000000000e+00  8.8032010556162188e+00 -5.1382848307255573e+00 0.0000000000000000e+00  8.3378409825189284e+00 -1.0230228051860756e+01 0.0000000000000000e+00  8.3125932824270414e+00 -1.0358011299071098e+01 0.0000000000000000e+00  7.2138817668039890e+00 -1.0528931853767837e+01 0.0000000000000000e+00  7.0482839710964367e+00 -1.0750740898051266e+01 0.0000000000000000e+00  7.0730143265597132e+00 -1.0721716051646281e+01 0.0000000000000000e+00  7.2741482577822056e+00 -1.0499313605417100e+01 0.0000000000000000e+00  7.6800892258049140e+00 -1.0192200733107633e+01 0.0000000000000000e+00  7.6845892706711165e+00 -1.0193557095672913e+01 0.0000000000000000e+00  6.8725963226210061e+00 -1.0266780535313789e+01 0.0000000000000000e+00  7.1060236629097062e+00 -1.0180665814745540e+01 0.0000000000000000e+00  7.0502254869572898e+00 -1.0197733124710965e+01 0.0000000000000000e+00  6.8057127695499275e+00 -1.0297407408729796e+01 0.0000000000000000e+00  8.54592539