<?xml version="1.0"?>
<VTKFile type="UnstructuredGrid"  version="0.1"  >
<UnstructuredGrid>
<Piece  NumberOfPoints="5328" NumberOfCells="20142">
<Points>
<DataArray  type="Float64"  NumberOfComponents="3"  format="ascii">0.175 0 0  0.18445 0 0  0.175 0.00945 0  0.16555 0 0  0.193 0 0  0.175 0.018 0  0.157 0 0  0.175 0 0.006  0.193 0 0.006  0.175 0.018 0.006  0.157 0 0.006  0.175 -0.00945 0  0.175 -0.018 0  0.175 -0.018 0.006  0.1529482566072435 0.0633532422280406 0  0.1704095797717068 0.07058595909974082 0  0.1616789181894752 0.06696960066389071 0  0.1580625597536251 0.07570026224612236 0  0.145049086604272 0.0600812988813191 0  0.1547906164069036 0.08359943224909387 0  0.1783087497746783 0.07385790244646231 0  0.1783087497746783 0.07385790244646231 0.006  0.145049086604272 0.0600812988813191 0.006  0.1547906164069036 0.08359943224909387 0.006  0.1616789181894752 0.06696960066389071 0.006  0.1652952766253253 0.05823893908165905 0  0.1685672199720468 0.05033976907868755 0  0.1685672199720468 0.05033976907868755 0.006  0.1170615276254329 0.1170615276254329 0  0.1304258457898587 0.1304258457898587 0  0.1237436867076458 0.1237436867076458 0  0.117061527625433 0.1304258457898587 0  0.111015764646288 0.111015764646288 0  0.111015764646288 0.1364716087690037 0  0.1364716087690037 0.1364716087690036 0  0.1364716087690037 0.1364716087690036 0.006  0.111015764646288 0.111015764646288 0.006  0.111015764646288 0.1364716087690037 0.006  0.1237436867076458 0.1237436867076458 0.006  0.1304258457898587 0.1170615276254329 0  0.1364716087690037 0.1110157646462879 0  0.1364716087690037 0.1110157646462879 0.006  0.06335324222804062 0.1529482566072435 0  0.07058595909974082 0.1704095797717068 0  0.06696960066389071 0.1616789181894752 0  0.05823893908165905 0.1652952766253253 0  0.06008129888131911 0.145049086604272 0  0.05033976907868755 0.1685672199720468 0  0.07385790244646233 0.1783087497746783 0  0.07385790244646233 0.1783087497746783 0.006  0.06008129888131911 0.145049086604272 0.006  0.05033976907868755 0.1685672199720468 0.006  0.06696960066389071 0.1616789181894752 0.006  0.07570026224612236 0.1580625597536251 0  0.08359943224909387 0.1547906164069036 0  0.08359943224909387 0.1547906164069036 0.006  1.013701387994221e-17 0.16555 0  1.129430510513647e-17 0.18445 0  1.071565949253934e-17 0.175 0  -0.00944999999999999 0.175 0  9.613477373306723e-18 0.157 0  -0.01799999999999999 0.175 0  1.181784161177196e-17 0.193 0  1.181784161177196e-17 0.193 0.006  9.613477373306723e-18 0.157 0.006  -0.01799999999999999 0.175 0.006  1.071565949253934e-17 0.175 0.006  0.00945000000000001 0.175 0  0.01800000000000001 0.175 0  0.01800000000000001 0.175 0.006  -0.06335324222804059 0.1529482566072435 0  -0.0705859590997408 0.1704095797717068 0  -0.0669696006638907 0.1616789181894752 0  -0.07570026224612236 0.1580625597536251 0  -0.06008129888131909 0.145049086604272 0  -0.08359943224909386 0.1547906164069036 0  -0.07385790244646231 0.1783087497746783 0  -0.07385790244646231 0.1783087497746783 0.006  -0.06008129888131909 0.145049086604272 0.006  -0.08359943224909386 0.1547906164069036 0.006  -0.0669696006638907 0.1616789181894752 0.006  -0.05823893908165904 0.1652952766253253 0  -0.05033976907868754 0.1685672199720468 0  -0.05033976907868754 0.1685672199720468 0.006  -0.1170615276254329 0.1170615276254329 0  -0.1304258457898587 0.1304258457898587 0  -0.1237436867076458 0.1237436867076458 0  -0.1304258457898587 0.117061527625433 0  -0.111015764646288 0.111015764646288 0  -0.1364716087690037 0.111015764646288 0  -0.1364716087690036 0.1364716087690037 0  -0.1364716087690036 0.1364716087690037 0.006  -0.111015764646288 0.111015764646288 0.006  -0.1364716087690037 0.111015764646288 0.006  -0.1237436867076458 0.1237436867076458 0.006  -0.1170615276254329 0.1304258457898587 0  -0.1110157646462879 0.1364716087690037 0  -0.1110157646462879 0.1364716087690037 0.006  -0.1529482566072435 0.06335324222804062 0  -0.1704095797717068 0.07058595909974083 0  -0.1616789181894752 0.06696960066389072 0  -0.1652952766253253 0.05823893908165906 0  -0.145049086604272 0.06008129888131911 0  -0.1685672199720468 0.05033976907868756 0  -0.1783087497746783 0.07385790244646234 0  -0.1783087497746783 0.07385790244646234 0.006  -0.145049086604272 0.06008129888131911 0.006  -0.1685672199720468 0.05033976907868756 0.006  -0.1616789181894752 0.06696960066389072 0.006  -0.1580625597536251 0.07570026224612239 0  -0.1547906164069036 0.08359943224909389 0  -0.1547906164069036 0.08359943224909389 0.006  -0.16555 2.027402775988443e-17 0  -0.18445 2.258861021027293e-17 0  -0.175 2.143131898507868e-17 0  -0.175 -0.009449999999999979 0  -0.157 1.922695474661345e-17 0  -0.175 -0.01799999999999998 0  -0.193 2.363568322354391e-17 0  -0.193 2.363568322354391e-17 0.006  -0.157 1.922695474661345e-17 0.006  -0.175 -0.01799999999999998 0.006  -0.175 2.143131898507868e-17 0.006  -0.175 0.009450000000000021 0  -0.175 0.01800000000000002 0  -0.175 0.01800000000000002 0.006  -0.1529482566072435 -0.06335324222804059 0  -0.1704095797717069 -0.07058595909974079 0  -0.1616789181894752 -0.06696960066389068 0  -0.1580625597536251 -0.07570026224612235 0  -0.145049086604272 -0.06008129888131908 0  -0.1547906164069036 -0.08359943224909384 0  -0.1783087497746783 -0.0738579024464623 0  -0.1783087497746783 -0.0738579024464623 0.006  -0.145049086604272 -0.06008129888131908 0.006  -0.1547906164069036 -0.08359943224909384 0.006  -0.1616789181894752 -0.06696960066389068 0.006  -0.1652952766253253 -0.05823893908165902 0  -0.1685672199720468 -0.05033976907868752 0  -0.1685672199720468 -0.05033976907868752 0.006  -0.117061527625433 -0.1170615276254329 0  -0.1304258457898587 -0.1304258457898587 0  -0.1237436867076458 -0.1237436867076458 0  -0.117061527625433 -0.1304258457898587 0  -0.111015764646288 -0.111015764646288 0  -0.111015764646288 -0.1364716087690037 0  -0.1364716087690037 -0.1364716087690036 0  -0.1364716087690037 -0.1364716087690036 0.006  -0.111015764646288 -0.111015764646288 0.006  -0.111015764646288 -0.1364716087690037 0.006  -0.1237436867076458 -0.1237436867076458 0.006  -0.1304258457898587 -0.1170615276254329 0  -0.1364716087690037 -0.1110157646462879 0  -0.1364716087690037 -0.1110157646462879 0.006  -0.0633532422280407 -0.1529482566072435 0  -0.07058595909974091 -0.1704095797717068 0  -0.06696960066389081 -0.1616789181894751 0  -0.05823893908165915 -0.1652952766253252 0  -0.06008129888131918 -0.145049086604272 0  -0.05033976907868765 -0.1685672199720468 0  -0.07385790244646243 -0.1783087497746783 0  -0.07385790244646243 -0.1783087497746783 0.006  -0.06008129888131918 -0.145049086604272 0.006  -0.05033976907868765 -0.1685672199720468 0.006  -0.06696960066389081 -0.1616789181894751 0.006  -0.07570026224612246 -0.158062559753625 0  -0.08359943224909397 -0.1547906164069035 0  -0.08359943224909397 -0.1547906164069035 0.006  -3.041104163982664e-17 -0.16555 0  -3.388291531540939e-17 -0.18445 0  -3.214697847761802e-17 -0.175 0  0.009449999999999967 -0.175 0  -2.884043211992017e-17 -0.157 0  0.01799999999999997 -0.175 0  -3.545352483531587e-17 -0.193 0  -3.545352483531587e-17 -0.193 0.006  -2.884043211992017e-17 -0.157 0.006  0.01799999999999997 -0.175 0.006  -3.214697847761802e-17 -0.175 0.006  -0.009450000000000033 -0.175 0  -0.01800000000000003 -0.175 0  -0.01800000000000003 -0.175 0.006  0.06335324222804065 -0.1529482566072435 0  0.07058595909974086 -0.1704095797717068 0  0.06696960066389075 -0.1616789181894752 0  0.07570026224612242 -0.1580625597536251 0  0.06008129888131913 -0.145049086604272 0  0.08359943224909391 -0.1547906164069035 0  0.07385790244646236 -0.1783087497746783 0  0.07385790244646236 -0.1783087497746783 0.006  0.06008129888131913 -0.145049086604272 0.006  0.08359943224909391 -0.1547906164069035 0.006  0.06696960066389075 -0.1616789181894752 0.006  0.05823893908165909 -0.1652952766253253 0  0.05033976907868759 -0.1685672199720468 0  0.05033976907868759 -0.1685672199720468 0.006  0.1170615276254329 -0.117061527625433 0  0.1304258457898587 -0.1304258457898587 0  0.1237436867076458 -0.1237436867076458 0  0.1304258457898587 -0.117061527625433 0  0.1110157646462879 -0.111015764646288 0  0.1364716087690036 -0.111015764646288 0  0.1364716087690036 -0.1364716087690037 0  0.1364716087690036 -0.1364716087690037 0.006  0.1110157646462879 -0.111015764646288 0.006  0.1364716087690036 -0.111015764646288 0.006  0.1237436867076458 -0.1237436867076458 0.006  0.1170615276254329 -0.1304258457898587 0  0.1110157646462879 -0.1364716087690037 0  0.1110157646462879 -0.1364716087690037 0.006  0.1529482566072435 -0.0633532422280407 0  0.1704095797717068 -0.07058595909974093 0  0.1616789181894751 -0.06696960066389081 0  0.1652952766253252 -0.05823893908165915 0  0.145049086604272 -0.06008129888131919 0  0.1685672199720468 -0.05033976907868765 0  0.1783087497746783 -0.07385790244646244 0  0.1783087497746783 -0.07385790244646244 0.006  0.145049086604272 -0.06008129888131919 0.006  0.1685672199720468 -0.05033976907868765 0.006  0.1616789181894751 -0.06696960066389081 0.006  0.158062559753625 -0.07570026224612246 0  0.1547906164069035 -0.08359943224909397 0  0.1547906164069035 -0.08359943224909397 0.006  0.1816821590571039 0.006682159107321884 0  0.1683178408904039 0.006682159054829612 0  0.1905884572626798 0.009000000009422473 0  0.1839999999697972 0.01558845728555746 0  0.1659999999713115 0.01558845725155659 0  0.1594115427217315 0.008999999982422135 0  0.1659999999999918 0 0.006  0.1839999999999864 0 0.006  0.1905884572626798 0.009000000009422473 0.006  0.1839999999697972 0.01558845728555746 0.006  0.1659999999713115 0.01558845725155659 0.006  0.1594115427217315 0.008999999982422135 0.006  0.1816821590822129 -0.006682159082212883 0  0.1683178409177871 -0.006682159082212875 0  0.1594115427217313 -0.008999999982421729 0  0.1659999999713265 -0.01558845725156525 0  0.1839999999697972 -0.01558845728555747 0  0.1905884572626846 -0.009000000009414219 0  0.1839999999697972 -0.01558845728555747 0.006  0.1905884572626846 -0.00
[...]
<PointData  Vectors="f_333"> 
<DataArray  type="Float64"  Name="f_333"  NumberOfComponents="3" format="ascii">-5.7671472344578080e-04 5.6459335773062535e-05 0.0000000000000000e+00  -4.7016398925973533e-04 4.1656194933313600e-05 0.0000000000000000e+00  -4.7720428403572859e-04 3.8412113061947050e-05 0.0000000000000000e+00  -4.8032846876239693e-04 4.8647229945822959e-05 0.0000000000000000e+00  -3.4844360493309188e-04 3.8742728624306780e-05 0.0000000000000000e+00  -3.3431577969269741e-04 2.0481484202767680e-05 0.0000000000000000e+00  -3.4800651423797684e-04 3.9457926448136372e-05 0.0000000000000000e+00  -4.0236016071065392e-04 4.2639951400544958e-05 0.0000000000000000e+00  -3.4202863481086937e-04 3.8456700082358972e-05 0.0000000000000000e+00  -3.3216842204911222e-04 2.0063738772284763e-05 0.0000000000000000e+00  -3.4084930650636852e-04 3.8931537747370366e-05 0.0000000000000000e+00  -4.7568810161453085e-04 5.5626089859945601e-05 0.0000000000000000e+00  -3.3920824390719590e-04 5.6405702721747152e-05 0.0000000000000000e+00  -3.3745928120184850e-04 5.6481486269045826e-05 0.0000000000000000e+00  -4.1882515029678918e-04 -8.8330845582447598e-05 0.0000000000000000e+00  -4.2445933443374916e-04 -8.0602649634947004e-05 0.0000000000000000e+00  -5.1266944282920093e-04 -1.0069200908447193e-04 0.0000000000000000e+00  -4.2189131101309823e-04 -8.9878221361314365e-05 0.0000000000000000e+00  -3.0917475552303796e-04 -5.7300532416545337e-05 0.0000000000000000e+00  -2.8831265726997953e-04 -7.2192589147872227e-05 0.0000000000000000e+00  -3.1128009248121923e-04 -5.6673678698025519e-05 0.0000000000000000e+00  -3.0541402496978736e-04 -5.5439553331439745e-05 0.0000000000000000e+00  -3.0308810845887065e-04 -5.5749408736598276e-05 0.0000000000000000e+00  -2.8629049584507325e-04 -7.2028235509823593e-05 0.0000000000000000e+00  -3.5825147131100115e-04 -6.7771773017425026e-05 0.0000000000000000e+00  -4.2897448268545827e-04 -7.5990757380812725e-05 0.0000000000000000e+00  -3.1192358188669565e-04 -3.7056746691862128e-05 0.0000000000000000e+00  -3.0969555874106803e-04 -3.6302224885960622e-05 0.0000000000000000e+00  -2.9832946077358228e-04 -2.0523246230254435e-04 0.0000000000000000e+00  -3.0700537921630279e-04 -2.0045438875388033e-04 0.0000000000000000e+00  -3.6880703243612520e-04 -2.4500327671141017e-04 0.0000000000000000e+00  -2.9493793378157452e-04 -2.0905273645116060e-04 0.0000000000000000e+00  -2.2348152400783093e-04 -1.4501240503241912e-04 0.0000000000000000e+00  -1.9786197264574511e-04 -1.5488375595906062e-04 0.0000000000000000e+00  -2.2555785133499288e-04 -1.4512251540258289e-04 0.0000000000000000e+00  -2.2135214321703555e-04 -1.4226242565861194e-04 0.0000000000000000e+00  -2.1925831866978919e-04 -1.4181123746314871e-04 0.0000000000000000e+00  -1.9589927704020835e-04 -1.5391051996780210e-04 0.0000000000000000e+00  -2.5854279113443851e-04 -1.6910151345030704e-04 0.0000000000000000e+00  -3.1646185563046343e-04 -1.9657702041033743e-04 0.0000000000000000e+00  -2.3685463390400949e-04 -1.2500435950523283e-04 0.0000000000000000e+00  -2.3585918534425751e-04 -1.2392636607596078e-04 0.0000000000000000e+00  -1.3449794823276829e-04 -2.9017768102051176e-04 0.0000000000000000e+00  -1.4127786440139620e-04 -2.8980329353373680e-04 0.0000000000000000e+00  -1.6877531172244156e-04 -3.5178153134238010e-04 0.0000000000000000e+00  -1.2489289991338086e-04 -2.9151241805018633e-04 0.0000000000000000e+00  -1.0405251834886754e-04 -2.1057142534726324e-04 0.0000000000000000e+00  -7.7092922371690338e-05 -2.1380354377625453e-04 0.0000000000000000e+00  -1.0530818782736624e-04 -2.1149620917203170e-04 0.0000000000000000e+00  -1.0344189413712074e-04 -2.0744455732973042e-04 0.0000000000000000e+00  -1.0226244681118572e-04 -2.0623066357581773e-04 0.0000000000000000e+00  -7.6183139481583332e-05 -2.1258077060009619e-04 0.0000000000000000e+00  -1.1957451168871185e-04 -2.4453132257013096e-04 0.0000000000000000e+00  -1.5329580446725617e-04 -2.8564326551958671e-04 0.0000000000000000e+00  -1.2620607186024808e-04 -1.9448550554272036e-04 0.0000000000000000e+00  -1.2601965650595431e-04 -1.9328215035560088e-04 0.0000000000000000e+00  5.1238089658720863e-05 -3.2855612560536539e-04 0.0000000000000000e+00  4.4269527293584656e-05 -3.3587664582153783e-04 0.0000000000000000e+00  5.6937433892564280e-05 -4.0486411207313658e-04 0.0000000000000000e+00  5.9006446134974853e-05 -3.3243468518548875e-04 0.0000000000000000e+00  3.1295008546293547e-05 -2.4338329929819149e-04 0.0000000000000000e+00  5.5275224881571564e-05 -2.4018859799399239e-04 0.0000000000000000e+00  3.0735282989165856e-05 -2.4573997944103124e-04 0.0000000000000000e+00  3.0033277301507456e-05 -2.4112010387158201e-04 0.0000000000000000e+00  3.0459470321791767e-05 -2.3916935302413742e-04 0.0000000000000000e+00  5.5340192467966737e-05 -2.3869362562328357e-04 0.0000000000000000e+00  3.7599574824629794e-05 -2.8282381586793942e-04 0.0000000000000000e+00  3.4181158880428376e-05 -3.3439503684207537e-04 0.0000000000000000e+00  4.1435764198426882e-06 -2.3398313630768587e-04 0.0000000000000000e+00  3.4994158759186106e-06 -2.3205092498600039e-04 0.0000000000000000e+00  2.2822903715393145e-04 -3.2206007299455657e-04 0.0000000000000000e+00  2.2370210313087598e-04 -3.2926079563026426e-04 0.0000000000000000e+00  2.7313797590533615e-04 -3.9662166528873214e-04 0.0000000000000000e+00  2.3417020276380647e-04 -3.2527317142177548e-04 0.0000000000000000e+00  1.6174492762495145e-04 -2.4060694701711523e-04 0.0000000000000000e+00  1.7908292424889866e-04 -2.3028070107849894e-04 0.0000000000000000e+00  1.6200890708632800e-04 -2.4260257870238968e-04 0.0000000000000000e+00  1.5882739010554355e-04 -2.3812785008220461e-04 0.0000000000000000e+00  1.5819808118162164e-04 -2.3602408693671872e-04 0.0000000000000000e+00  1.7829640000424028e-04 -2.2874878818741976e-04 0.0000000000000000e+00  1.8860674595145340e-04 -2.7820207996091437e-04 0.0000000000000000e+00  2.1598986437767443e-04 -3.3058251310279989e-04 0.0000000000000000e+00  1.3337455571868381e-04 -2.3766777110626659e-04 0.0000000000000000e+00  1.3203764582294438e-04 -2.3629137495772935e-04 0.0000000000000000e+00  3.7082639835919051e-04 -2.6211746585493338e-04 0.0000000000000000e+00  3.6906151452154251e-04 -2.7428661528770175e-04 0.0000000000000000e+00  4.4835441653094183e-04 -3.2777194805732668e-04 0.0000000000000000e+00  3.7863631958866414e-04 -2.6556409142827677e-04 0.0000000000000000e+00  2.6760133757974114e-04 -2.0007752644365283e-04 0.0000000000000000e+00  2.7565557530976367e-04 -1.8459142768670746e-04 0.0000000000000000e+00  2.6869605339425220e-04 -2.0249144034391119e-04 0.0000000000000000e+00  2.6349001456824354e-04 -1.9877346234782307e-04 0.0000000000000000e+00  2.6200123030733439e-04 -1.9649070409719587e-04 0.0000000000000000e+00  2.7374749566977743e-04 -1.8295183145365060e-04 0.0000000000000000e+00  3.1118919098470723e-04 -2.3090059483693481e-04 0.0000000000000000e+00  3.6060713861099626e-04 -2.7572161235179702e-04 0.0000000000000000e+00  2.4268994672229003e-04 -2.0583448566963386e-04 0.0000000000000000e+00  2.4105862888895566e-04 -2.0496280619561750e-04 0.0000000000000000e+00  4.5452345362316472e-04 -1.6413814308225978e-04 0.0000000000000000e+00  4.5745091720876519e-04 -1.7486863928439241e-04 0.0000000000000000e+00  5.5491380038773643e-04 -2.0842361681543752e-04 0.0000000000000000e+00  4.6169014640884604e-04 -1.6312963385022028e-04 0.0000000000000000e+00  3.3180437048599876e-04 -1.2908359568966445e-04 0.0000000000000000e+00  3.3014145993436278e-04 -1.1087101630621272e-04 0.0000000000000000e+00  3.3428656525188105e-04 -1.3107015397953334e-04 0.0000000000000000e+00  3.2798600855553286e-04 -1.2882106443365887e-04 0.0000000000000000e+00  3.2584543351389932e-04 -1.2717958324150820e-04 0.0000000000000000e+00  3.2762958780356409e-04 -1.0974070272765596e-04 0.0000000000000000e+00  3.8623037904506486e-04 -1.4829123228291398e-04 0.0000000000000000e+00  4.5392422663224571e-04 -1.8246568857121413e-04 0.0000000000000000e+00  3.1494495254303246e-04 -1.4219475715705949e-04 0.0000000000000000e+00  3.1314033915791275e-04 -1.4179118298406805e-04 0.0000000000000000e+00  4.7019833220115906e-04 -3.9752761947342536e-05 0.0000000000000000e+00  4.7802563484949516e-04 -5.1850712608201763e-05 0.0000000000000000e+00  5.7752565815224111e-04 -5.7529731086172433e-05 0.0000000000000000e+00  4.7583620521814775e-04 -3.9190093992004022e-05 0.0000000000000000e+00  3.4602898173539444e-04 -3.8475627061333549e-05 0.0000000000000000e+00  3.3448700873229696e-04 -2.0560411524627966e-05 0.0000000000000000e+00  3.4905510773567436e-04 -4.0053004051119104e-05 0.0000000000000000e+00  3.4245207106307386e-04 -3.9467232338380746e-05 0.0000000000000000e+00  3.3993737915201155e-04 -3.8203190269757605e-05 0.0000000000000000e+00  3.3175500216963338e-04 -2.0098334239755119e-05 0.0000000000000000e+00  4.0260342337734942e-04 -4.3097522602855899e-05 0.0000000000000000e+00  4.7941690152715407e-04 -5.6712412818845536e-05 0.0000000000000000e+00  3.3893009556405307e-04 -5.6563781117591622e-05 0.0000000000000000e+00  3.3625111718827566e-04 -5.6584992273939162e-05 0.0000000000000000e+00  4.1280749333047668e-04 8.8486443860592262e-05 0.0000000000000000e+00  4.2431309735055481e-04 8.0815032632450878e-05 0.0000000000000000e+00  5.1112423769252675e-04 1.0188463084966030e-04 0.0000000000000000e+00  4.1793036028688068e-04 9.2596790404876592e-05 0.0000000000000000e+00  3.0721920579501294e-04 5.7549421523636933e-05 0.0000000000000000e+00  2.8743400075516745e-04 7.2810552453758944e-05 0.0000000000000000e+00  3.1063074150350432e-04 5.7138734108275099e-05 0.0000000000000000e+00  3.0485103306533744e-04 5.5918388018969157e-05 0.0000000000000000e+00  3.0227326167615360e-04 5.6299722156535117e-05 0.0000000000000000e+00  2.8550520706099446e-04 7.2661225688489545e-05 0.0000000000000000e+00  3.5730065085077064e-04 6.8526927561185359e-05 0.0000000000000000e+00  4.2966330059437621e-04 7.5754807257642873e-05 0.0000000000000000e+00  3.1143453099886811e-04 3.7402696152028132e-05 0.0000000000000000e+00  3.0920837013393023e-04 3.6642399592996515e-05 0.0000000000000000e+00  2.9779198144424049e-04 2.0567670306560816e-04 0.0000000000000000e+00  3.0642182716107355e-04 2.0101470417013229e-04 0.0000000000000000e+00  3.6822979972781682e-04 2.4565843358150739e-04 0.0000000000000000e+00  2.9543031115175622e-04 2.1017646810136292e-04 0.0000000000000000e+00  2.2298272211303767e-04 1.4541145132508811e-04 0.0000000000000000e+00  1.9715790392786552e-04 1.5503596855351976e-04 0.0000000000000000e+00  2.2503730044865555e-04 1.4554555335429293e-04 0.0000000000000000e+00  2.2089710093230110e-04 1.4271514719727715e-04 0.0000000000000000e+00  2.1876187014376551e-04 1.4220556850644357e-04 0.0000000000000000e+00  1.9563174174723938e-04 1.5435832975137291e-04 0.0000000000000000e+00  2.5800901387905672e-04 1.6957758912610377e-04 0.0000000000000000e+00  3.1484143424261247e-04 1.9653316346219643e-04 0.0000000000000000e+00  2.3663898679399147e-04 1.2559110475182043e-04 0.0000000000000000e+00  2.3519878265989839e-04 1.2421045773122001e-04 0.0000000000000000e+00  1.3254719735661939e-04 2.8844519792954474e-04 0.0000000000000000e+00  1.4187717609752659e-04 2.9068975987311041e-04 0.0000000000000000e+00  1.6859875794754099e-04 3.5244491615513064e-04 0.0000000000000000e+00  1.2583440081775159e-04 2.9244256255888247e-04 0.0000000000000000e+00  1.0335136007100615e-04 2.1032119890350691e-04 0.0000000000000000e+00  7.6853649266182651e-05 2.1418377914361042e-04 0.0000000000000000e+00  1.0508211945208148e-04 2.1190899104064282e-04 0.0000000000000000e+00  1.0319321952808110e-04 2.0786134418914094e-04 0.0000000000000000e+00  1.0178241467068305e-04 2.0653057225357310e-04 0.0000000000000000e+00  7.5942298375918481e-05 2.1295692693847692e-04 0.0000000000000000e+00  1.1926053829661882e-04 2.4503262879710575e-04 0.0000000000000000e+00  1.5075063828420593e-04 2.8477869644408655e-04 0.0000000000000000e+00  1.2580329105052492e-04 1.9488069636868088e-04 0.0000000000000000e+00  1.2548043705483674e-04 1.9341652037757758e-04 0.0000000000000000e+00  -5.1493876785194852e-05 3.2872751694383443e-04 0.0000000000000000e+00  -4.4731426168653063e-05 3.3614541560897626e-04 0.0000000000000000e+00  -5.7125502620196026e-05 4.0537374613481962e-04 0.0000000000000000e+00  -5.9461871770947848e-05 3.3384521246738205e-04 0.0000000000000000e+00  -3.1671044125888641e-05 2.4359792749131901e-04 0.0000000000000000e+00  -5.5616669127692684e-05 2.4022387699639442e-04 0.0000000000000000e+00  -3.1114800317319957e-05 2.4599283482007965e-04 0.0000000000000000e+00  -3.0405083152800812e-05 2.4133214120817005e-04 0.0000000000000000e+00  -3.0842767576994749e-05 2.3938111303170215e-04 0.0000000000000000e+00  -5.5729948116802409e-05 2.3898682191919571e-04 0.0000000000000000e+00  -3.7924459588032668e-05 2.8308977580586404e-04 0.0000000000000000e+00  -3.4458816713228271e-05 3.3488125966864112e-04 0.0000000000000000e+00  -4.4863159712479699e-06 2.3424412332511308e-04 0.0000000000000000e+00  -3.8438090913031891e-06 2.3230896056636796e-04 0.0000000000000000e+00  -2.2615938732552281e-04 3.2786553308176758e-04 0.0000000000000000e+00  -2.2655958065446915e-04 3.1978484171155835e-04 0.0000000000000000e+00  -2.7460060651497719e-04 3.9517242776478979e-04 0.0000000000000000e+00  -2.3891584908554650e-04 3.2533497634725271e-04 0.0000000000000000e+00  -1.6178241199977158e-04 2.4061500760531613e-04 0.0000000000000000e+00  -1.7944242430041659e-04 2.2936893507344888e-04 0.0000000000000000e+00  -1.6290394588988036e-04 2.4110935722073521e-04 0.0000000000000000e+00  -1.5967904783857737e-04 2.3695419317840564e-04 0.0000000000000000e+00  -1.5871743218916424e-04 2.3641774478590688e-04 0.0000000000000000e+00  -1.7872300189892098e-04 2.2787992714670636e-04 0.0000000000000000e+00  -1.8955413827529118e-04 2.7744773781362617e-04 0.0000000000000000e+00  -2.1592822428227108e-04 3.3010444106108724e-04 0.0000000000000000e+00  -1.3416058772250364e-04 2.3779818622152982e-04 0.0000000000000000e+00  -1.3253428354867568e-04 2.3604193857987768e-04 0.0000000000000000e+00  -3.7167426951771620e-04 2.6389462312393096e-04 0.0000000000000000e+00  -3.6945391755062809e-04 2.7380312185768544e-04 0.0000000000000000e+00  -4.4903014274062824e-04 3.2821451855295097e-04 0.0000000000000000e+00  -3.7639633382530315e-04 2.6223908644235045e-04 0.0000000000000000e+00  -2.6810828177889094e-04 2.0044729766453966e-04 0.0000000000000000e+00  -2.7608652147058453e-04 1.8462341551059931e-04 0.0000000000000000e+00  -2.6912516336092510e-04 2.0252430242203646e-04 0.0000000000000000e+00  -2.6395814772502759e-04 1.9885436967832895e-04 0.0000000000000000e+00  -2.6249503896801714e-04 1.9680286355126608e-04 0.0000000000000000e+00  -2.7485915172344801e-04 1.8347582315876771e-04 0.0000000000000000e+00  -3.1171139252806571e-04 2.3123186576329272e-04 0.0000000000000000e+00  -3.6413049277727282e-04 2.8088306733930579e-04 0.0000000000000000e+00  -2.4316966018213273e-04 2.0617416680937195e-04 0.0000000000000000e+00  -2.4082098343219938e-04 2.0480564192740014e-04 0.0000000000000000e+00  -4.5720226945442392e-04 1.6365277949141653e-04 0.0000000000000000e+00  -4.5892735625576190e-04 1.7678028581937549e-04 0.0000000000000000e+00  -5.5588557323917043e-04 2.0918436340216923e-04 0.0000000000000000e+00  -4.6004134570915315e-04 1.6430085751524144e-04 0.0000000000000000e+00  -3.3304441555338527e-04 1.2929198602937698e-04 0.0000000000000000e+00  -3.3068090009044160e-04 1.1118054011150618e-04 0.0000000000000000e+00  -3.3482075485402412e-04 1.3144413428275000e-04 0.0000000000000000e+00  -3.2839863901481072e-04 1.2910619180665230e-04 0.0000000000000000e+00  -3.2624817811528306e-04 1.2720002185630615e-04 0.0000000000000000e+00  -3.2901618340564376e-04 1.1036292279559037e-04 0.0000000000000000e+00  -3.8676323872944250e-04 1.4857052599096733e-04 0.0000000000000000e+00  -4.5651554404551003e-04 1.8116759956270310e-04 0.0000000000000000e+00  -3.1521731291739806e-04 1.4220572347060605e-04 0.0000000000000000e+00  -3.1249609483033022e-04 1.4147883503543737e-04 0.0000000000000000e+00  -4.6706047111944916e-04 3.7661906288130375e-05 0.0000000000000000e+00  -4.6987988412940324e-04 4.1409745545730603e-05 0.0000000000000000e+00  -3.4237413128350148e-04 3.0409018150480210e-05 0.0000000000000000e+00  -3.3756045003945664e-04 2.3823255839380326e-05 0.0000000000000000e+00  -3.3713588663195494e-04 2.2484728916169255e-05 0.0000000000000000e+00  -3.4084019444510842e-04 2.9279240791519809e-05 0.0000000000000000e+00  -3.7475400555393219e-04 4.1248366757992353e-05 0.0000000000000000e+00  -3.7306566071911376e-04 4.0024272408133453e-05 0.0000000000000000e+00  -3.3852968025295147e-04 2.9925724649623357e-05 0.0000000000000000e+00  -3.3385409534757675e-04 2.3335654266783986e-05 0.0000000000000000e+00  -3.3226352585656734e-04 2.1526553854697602e-05 0.0000000000000000e+00  -3.3762383017667171e-04 2.8893674578074575e-05 0.0000000000000000e+00  -4.7152210934985354e-04 4.9309219677572775e-05 0.0000000000000000e+00  -4.7225455006703833e-04 5.3754022068493640e-05 0.0000000000000000e+00  -3.4325201798059775e-04 4.8755512707126852e-05 0.0000000000000000e+00  -3.4103384604509610e-04 5.4939750159612566e-05 0.0000000000000000e+00  -3.4057874365396134e-04 5.3142346336327537e-05 0.0000000000000000e+00  -3.4439643554800702e-04 4.6676619400015109e-05 0.0000000000000000e+00  -3.3742366343396504e-04 5.3100956098159374e-05 0.0000000000000000e+00  -3.4059494659925617e-04 4.6719095724187933e-05 0.0000000000000000e+00  -3.4007196565049409e-04 4.8638001789994955e-05 0.0000000000000000e+00  -3.3639568133600765e-04 5.5202862021232652e-05 0.0000000000000000e+00  -4.1746622627211868e-04 -8.5040677818779903e-05 0.0000000000000000e+00  -4.1039299705660100e-04 -8.9721970310154182e-05 0.0000000000000000e+00  -2.9779190815836128e-04 -6.5568490085755188e-05 0.0000000000000000e+00  -2.9141390282276883e-04 -7.1162441314298995e-05 0.0000000000000000e+00  -2.9324357520707273e-04 -6.9409082171093442e-05 0.0000000000000000e+00  -3.0139511599286357e-04 -6.3673556932694459e-05 0.0000000000000000e+00  -3.3351393156618250e-04 -6.1603021741311252e-05 0.0000000000000000e+00  -3.3231843887989912e-04 -6.2958100164864700e-05 0.0000000000000000e+00  -2.8987345894757234e-04 -6.8900885087497943e-05 0.0000000000000000e+00  -2.9777767469937362e-04 -6.3208229646276898e-05 0.0000000000000000e+00  -2.9498376835019994e-04 -6.5015603367049588e-05 0.0000000000000000e+00  -2.8678323402115031e-04 -7.0828752174594752e-05 0.0000000000000000e+00  -4.3018408767730342e-04 -7.6809904320070924e-05 0.0000000000000000e+00  -4.1723093500236176e-04 -7.9498665952676634e-05 0.0000000000000000e+00  -3.1040157914985185e-04 -4.6456399662950294e-05 0.0000000000000000e+00  -3.1240315649309046e-04 -3.9360003436640447e-05 0.0000000000000000e+00  -3.1006823359594542e-04 -4.0024875499559129e-05 0.0000000000000000e+00  -3.1172741231688358e-04 -4.7724506221871366e-05 0.0000000000000000e+00  -3.0869248144898398e-04 -3.9596783021486021e-05 0.0000000000000000e+00  -3.0851925288955906e-04 -4.6733913273502967e-05 0.0000000000000000e+00  -3.0776391949645929e-04 -4.5651095803615597e-05 0.0000000000000000e+00  -3.0858456971802632e-04 -3.7778938834362929e-05 0.0000000000000000e+00  -3.0154689171233318e-04 -2.0643068287579404e-04 0.0000000000000000e+00  -2.8857616694831473e-04 -2.0522384979490432e-04 0.0000000000000000e+00  -2.0931235533873575e-04 -1.5039539969094264e-04 0.0000000000000000e+00  -2.0077069741880279e-04 -1.5443940419451686e-04 0.0000000000000000e+00  -2.0160882216707215e-04 -1.5219696937862309e-04 0.0000000000000000e+00  -2.1322269784656921e-04 -1.4952054383060608e-04 0.0000000000000000e+00  -2.4140664339523691e-04 -1.5620594899205803e-04 0.0000000000000000e+00  -2.3965857174421942e-04 -1.5697802068813103e-04 0.0000000000000000e+00  -2.0042234690583984e-04 -1.5159361605514233e-04 0.0000000000000000e+00  -2.1052023949019890e-04 -1.4808062410843272e-04 0.0000000000000000e+00  -2.0726613250040998e-04 -1.4908246400662602e-04 0.0000000000000000e+00  -1.9713281863860106e-04 -1.5282237201688501e-04 