<?xml version="1.0"?>
<VTKFile type="UnstructuredGrid"  version="0.1"  >
<UnstructuredGrid>
<Piece  NumberOfPoints="5328" NumberOfCells="20142">
<Points>
<DataArray  type="Float64"  NumberOfComponents="3"  format="ascii">0.175 0 0  0.18445 0 0  0.175 0.00945 0  0.16555 0 0  0.193 0 0  0.175 0.018 0  0.157 0 0  0.175 0 0.006  0.193 0 0.006  0.175 0.018 0.006  0.157 0 0.006  0.175 -0.00945 0  0.175 -0.018 0  0.175 -0.018 0.006  0.1529482566072435 0.0633532422280406 0  0.1704095797717068 0.07058595909974082 0  0.1616789181894752 0.06696960066389071 0  0.1580625597536251 0.07570026224612236 0  0.145049086604272 0.0600812988813191 0  0.1547906164069036 0.08359943224909387 0  0.1783087497746783 0.07385790244646231 0  0.1783087497746783 0.07385790244646231 0.006  0.145049086604272 0.0600812988813191 0.006  0.1547906164069036 0.08359943224909387 0.006  0.1616789181894752 0.06696960066389071 0.006  0.1652952766253253 0.05823893908165905 0  0.1685672199720468 0.05033976907868755 0  0.1685672199720468 0.05033976907868755 0.006  0.1170615276254329 0.1170615276254329 0  0.1304258457898587 0.1304258457898587 0  0.1237436867076458 0.1237436867076458 0  0.117061527625433 0.1304258457898587 0  0.111015764646288 0.111015764646288 0  0.111015764646288 0.1364716087690037 0  0.1364716087690037 0.1364716087690036 0  0.1364716087690037 0.1364716087690036 0.006  0.111015764646288 0.111015764646288 0.006  0.111015764646288 0.1364716087690037 0.006  0.1237436867076458 0.1237436867076458 0.006  0.1304258457898587 0.1170615276254329 0  0.1364716087690037 0.1110157646462879 0  0.1364716087690037 0.1110157646462879 0.006  0.06335324222804062 0.1529482566072435 0  0.07058595909974082 0.1704095797717068 0  0.06696960066389071 0.1616789181894752 0  0.05823893908165905 0.1652952766253253 0  0.06008129888131911 0.145049086604272 0  0.05033976907868755 0.1685672199720468 0  0.07385790244646233 0.1783087497746783 0  0.07385790244646233 0.1783087497746783 0.006  0.06008129888131911 0.145049086604272 0.006  0.05033976907868755 0.1685672199720468 0.006  0.06696960066389071 0.1616789181894752 0.006  0.07570026224612236 0.1580625597536251 0  0.08359943224909387 0.1547906164069036 0  0.08359943224909387 0.1547906164069036 0.006  1.013701387994221e-17 0.16555 0  1.129430510513647e-17 0.18445 0  1.071565949253934e-17 0.175 0  -0.00944999999999999 0.175 0  9.613477373306723e-18 0.157 0  -0.01799999999999999 0.175 0  1.181784161177196e-17 0.193 0  1.181784161177196e-17 0.193 0.006  9.613477373306723e-18 0.157 0.006  -0.01799999999999999 0.175 0.006  1.071565949253934e-17 0.175 0.006  0.00945000000000001 0.175 0  0.01800000000000001 0.175 0  0.01800000000000001 0.175 0.006  -0.06335324222804059 0.1529482566072435 0  -0.0705859590997408 0.1704095797717068 0  -0.0669696006638907 0.1616789181894752 0  -0.07570026224612236 0.1580625597536251 0  -0.06008129888131909 0.145049086604272 0  -0.08359943224909386 0.1547906164069036 0  -0.07385790244646231 0.1783087497746783 0  -0.07385790244646231 0.1783087497746783 0.006  -0.06008129888131909 0.145049086604272 0.006  -0.08359943224909386 0.1547906164069036 0.006  -0.0669696006638907 0.1616789181894752 0.006  -0.05823893908165904 0.1652952766253253 0  -0.05033976907868754 0.1685672199720468 0  -0.05033976907868754 0.1685672199720468 0.006  -0.1170615276254329 0.1170615276254329 0  -0.1304258457898587 0.1304258457898587 0  -0.1237436867076458 0.1237436867076458 0  -0.1304258457898587 0.117061527625433 0  -0.111015764646288 0.111015764646288 0  -0.1364716087690037 0.111015764646288 0  -0.1364716087690036 0.1364716087690037 0  -0.1364716087690036 0.1364716087690037 0.006  -0.111015764646288 0.111015764646288 0.006  -0.1364716087690037 0.111015764646288 0.006  -0.1237436867076458 0.1237436867076458 0.006  -0.1170615276254329 0.1304258457898587 0  -0.1110157646462879 0.1364716087690037 0  -0.1110157646462879 0.1364716087690037 0.006  -0.1529482566072435 0.06335324222804062 0  -0.1704095797717068 0.07058595909974083 0  -0.1616789181894752 0.06696960066389072 0  -0.1652952766253253 0.05823893908165906 0  -0.145049086604272 0.06008129888131911 0  -0.1685672199720468 0.05033976907868756 0  -0.1783087497746783 0.07385790244646234 0  -0.1783087497746783 0.07385790244646234 0.006  -0.145049086604272 0.06008129888131911 0.006  -0.1685672199720468 0.05033976907868756 0.006  -0.1616789181894752 0.06696960066389072 0.006  -0.1580625597536251 0.07570026224612239 0  -0.1547906164069036 0.08359943224909389 0  -0.1547906164069036 0.08359943224909389 0.006  -0.16555 2.027402775988443e-17 0  -0.18445 2.258861021027293e-17 0  -0.175 2.143131898507868e-17 0  -0.175 -0.009449999999999979 0  -0.157 1.922695474661345e-17 0  -0.175 -0.01799999999999998 0  -0.193 2.363568322354391e-17 0  -0.193 2.363568322354391e-17 0.006  -0.157 1.922695474661345e-17 0.006  -0.175 -0.01799999999999998 0.006  -0.175 2.143131898507868e-17 0.006  -0.175 0.009450000000000021 0  -0.175 0.01800000000000002 0  -0.175 0.01800000000000002 0.006  -0.1529482566072435 -0.06335324222804059 0  -0.1704095797717069 -0.07058595909974079 0  -0.1616789181894752 -0.06696960066389068 0  -0.1580625597536251 -0.07570026224612235 0  -0.145049086604272 -0.06008129888131908 0  -0.1547906164069036 -0.08359943224909384 0  -0.1783087497746783 -0.0738579024464623 0  -0.1783087497746783 -0.0738579024464623 0.006  -0.145049086604272 -0.06008129888131908 0.006  -0.1547906164069036 -0.08359943224909384 0.006  -0.1616789181894752 -0.06696960066389068 0.006  -0.1652952766253253 -0.05823893908165902 0  -0.1685672199720468 -0.05033976907868752 0  -0.1685672199720468 -0.05033976907868752 0.006  -0.117061527625433 -0.1170615276254329 0  -0.1304258457898587 -0.1304258457898587 0  -0.1237436867076458 -0.1237436867076458 0  -0.117061527625433 -0.1304258457898587 0  -0.111015764646288 -0.111015764646288 0  -0.111015764646288 -0.1364716087690037 0  -0.1364716087690037 -0.1364716087690036 0  -0.1364716087690037 -0.1364716087690036 0.006  -0.111015764646288 -0.111015764646288 0.006  -0.111015764646288 -0.1364716087690037 0.006  -0.1237436867076458 -0.1237436867076458 0.006  -0.1304258457898587 -0.1170615276254329 0  -0.1364716087690037 -0.1110157646462879 0  -0.1364716087690037 -0.1110157646462879 0.006  -0.0633532422280407 -0.1529482566072435 0  -0.07058595909974091 -0.1704095797717068 0  -0.06696960066389081 -0.1616789181894751 0  -0.05823893908165915 -0.1652952766253252 0  -0.06008129888131918 -0.145049086604272 0  -0.05033976907868765 -0.1685672199720468 0  -0.07385790244646243 -0.1783087497746783 0  -0.07385790244646243 -0.1783087497746783 0.006  -0.06008129888131918 -0.145049086604272 0.006  -0.05033976907868765 -0.1685672199720468 0.006  -0.06696960066389081 -0.1616789181894751 0.006  -0.07570026224612246 -0.158062559753625 0  -0.08359943224909397 -0.1547906164069035 0  -0.08359943224909397 -0.1547906164069035 0.006  -3.041104163982664e-17 -0.16555 0  -3.388291531540939e-17 -0.18445 0  -3.214697847761802e-17 -0.175 0  0.009449999999999967 -0.175 0  -2.884043211992017e-17 -0.157 0  0.01799999999999997 -0.175 0  -3.545352483531587e-17 -0.193 0  -3.545352483531587e-17 -0.193 0.006  -2.884043211992017e-17 -0.157 0.006  0.01799999999999997 -0.175 0.006  -3.214697847761802e-17 -0.175 0.006  -0.009450000000000033 -0.175 0  -0.01800000000000003 -0.175 0  -0.01800000000000003 -0.175 0.006  0.06335324222804065 -0.1529482566072435 0  0.07058595909974086 -0.1704095797717068 0  0.06696960066389075 -0.1616789181894752 0  0.07570026224612242 -0.1580625597536251 0  0.06008129888131913 -0.145049086604272 0  0.08359943224909391 -0.1547906164069035 0  0.07385790244646236 -0.1783087497746783 0  0.07385790244646236 -0.1783087497746783 0.006  0.06008129888131913 -0.145049086604272 0.006  0.08359943224909391 -0.1547906164069035 0.006  0.06696960066389075 -0.1616789181894752 0.006  0.05823893908165909 -0.1652952766253253 0  0.05033976907868759 -0.1685672199720468 0  0.05033976907868759 -0.1685672199720468 0.006  0.1170615276254329 -0.117061527625433 0  0.1304258457898587 -0.1304258457898587 0  0.1237436867076458 -0.1237436867076458 0  0.1304258457898587 -0.117061527625433 0  0.1110157646462879 -0.111015764646288 0  0.1364716087690036 -0.111015764646288 0  0.1364716087690036 -0.1364716087690037 0  0.1364716087690036 -0.1364716087690037 0.006  0.1110157646462879 -0.111015764646288 0.006  0.1364716087690036 -0.111015764646288 0.006  0.1237436867076458 -0.1237436867076458 0.006  0.1170615276254329 -0.1304258457898587 0  0.1110157646462879 -0.1364716087690037 0  0.1110157646462879 -0.1364716087690037 0.006  0.1529482566072435 -0.0633532422280407 0  0.1704095797717068 -0.07058595909974093 0  0.1616789181894751 -0.06696960066389081 0  0.1652952766253252 -0.05823893908165915 0  0.145049086604272 -0.06008129888131919 0  0.1685672199720468 -0.05033976907868765 0  0.1783087497746783 -0.07385790244646244 0  0.1783087497746783 -0.07385790244646244 0.006  0.145049086604272 -0.06008129888131919 0.006  0.1685672199720468 -0.05033976907868765 0.006  0.1616789181894751 -0.06696960066389081 0.006  0.158062559753625 -0.07570026224612246 0  0.1547906164069035 -0.08359943224909397 0  0.1547906164069035 -0.08359943224909397 0.006  0.1816821590571039 0.006682159107321884 0  0.1683178408904039 0.006682159054829612 0  0.1905884572626798 0.009000000009422473 0  0.1839999999697972 0.01558845728555746 0  0.1659999999713115 0.01558845725155659 0  0.1594115427217315 0.008999999982422135 0  0.1659999999999918 0 0.006  0.1839999999999864 0 0.006  0.1905884572626798 0.009000000009422473 0.006  0.1839999999697972 0.01558845728555746 0.006  0.1659999999713115 0.01558845725155659 0.006  0.1594115427217315 0.008999999982422135 0.006  0.1816821590822129 -0.006682159082212883 0  0.1683178409177871 -0.006682159082212875 0  0.1594115427217313 -0.008999999982421729 0  0.1659999999713265 -0.01558845725156525 0  0.1839999999697972 -0.01558845728555747 0  0.1905884572626846 -0.009000000009414219 0  0.1839999999697972 -0.01558845728555747 0.006  0.1905884572626846 -0.00
[...]
<PointData  Vectors="f_325"> 
<DataArray  type="Float64"  Name="f_325"  NumberOfComponents="3" format="ascii">1.6081144006124077e-04 -2.8738647917366054e-04 0.0000000000000000e+00  1.3311848096556709e-04 -2.3288595872619921e-04 0.0000000000000000e+00  1.4385398956819767e-04 -2.3861734398531237e-04 0.0000000000000000e+00  1.3315852694330250e-04 -2.3989790712835698e-04 0.0000000000000000e+00  9.4948008260870394e-05 -1.7517037576149583e-04 0.0000000000000000e+00  1.1229352251530399e-04 -1.7083413444476383e-04 0.0000000000000000e+00  9.4474936828145567e-05 -1.7520125148432183e-04 0.0000000000000000e+00  1.1063863454170250e-04 -2.0158179325429918e-04 0.0000000000000000e+00  9.2998759109376019e-05 -1.7208587409365452e-04 0.0000000000000000e+00  1.1197477491763400e-04 -1.6980909408185842e-04 0.0000000000000000e+00  9.2396377060407678e-05 -1.7169224229715313e-04 0.0000000000000000e+00  1.2142410191078741e-04 -2.3644901605688828e-04 0.0000000000000000e+00  7.0295795521411986e-05 -1.6842227782521048e-04 0.0000000000000000e+00  6.9525698113715947e-05 -1.6753104924952460e-04 0.0000000000000000e+00  2.7385368269388044e-04 -2.2187999848774401e-04 0.0000000000000000e+00  2.7184192884724097e-04 -2.2949633702749005e-04 0.0000000000000000e+00  3.3049322296674918e-04 -2.7544238966501123e-04 0.0000000000000000e+00  2.8268315968575934e-04 -2.2899946922992124e-04 0.0000000000000000e+00  1.9707129275569100e-04 -1.6791250966303930e-04 0.0000000000000000e+00  2.0738720024444604e-04 -1.5988546131123001e-04 0.0000000000000000e+00  1.9776770052462079e-04 -1.6959006600871697e-04 0.0000000000000000e+00  1.9393179244455881e-04 -1.6648114261560968e-04 0.0000000000000000e+00  1.9291882540439369e-04 -1.6482776715974603e-04 0.0000000000000000e+00  2.0639102520933128e-04 -1.5885680856113973e-04 0.0000000000000000e+00  2.2925603805888501e-04 -1.9384656100120785e-04 0.0000000000000000e+00  2.6499716826391918e-04 -2.2881255914577241e-04 0.0000000000000000e+00  1.7390750688091533e-04 -1.6713135554032136e-04 0.0000000000000000e+00  1.7211463589577984e-04 -1.6592222671363787e-04 0.0000000000000000e+00  3.7125737018650336e-04 -1.7366020193493767e-04 0.0000000000000000e+00  3.7155924759809186e-04 -1.8485455086337773e-04 0.0000000000000000e+00  4.5048275264022276e-04 -2.1966715239451974e-04 0.0000000000000000e+00  3.7714978332635692e-04 -1.7747229753043819e-04 0.0000000000000000e+00  2.6955061761002271e-04 -1.3508540471419424e-04 0.0000000000000000e+00  2.7131242015778590e-04 -1.2390733322408047e-04 0.0000000000000000e+00  2.7084458941042461e-04 -1.3703951945242095e-04 0.0000000000000000e+00  2.6564184101210018e-04 -1.3457385125611369e-04 0.0000000000000000e+00  2.6400409726849456e-04 -1.3279623850394594e-04 0.0000000000000000e+00  2.6932480346176336e-04 -1.2281092222095411e-04 0.0000000000000000e+00  3.1316609501228681e-04 -1.5550332456725817e-04 0.0000000000000000e+00  3.6907590917460508e-04 -1.8699216357404019e-04 0.0000000000000000e+00  2.5088742342787814e-04 -1.4015204275440873e-04 0.0000000000000000e+00  2.4917193988448937e-04 -1.3953394677474037e-04 0.0000000000000000e+00  4.1261793042521658e-04 -1.0144380860846924e-04 0.0000000000000000e+00  4.1386084093497102e-04 -1.1036601269021659e-04 0.0000000000000000e+00  5.0169194033242636e-04 -1.3044784227869582e-04 0.0000000000000000e+00  4.1046413499385976e-04 -1.0010806245994210e-04 0.0000000000000000e+00  3.0104849080592227e-04 -8.1999947876094047e-05 0.0000000000000000e+00  2.9372670978605134e-04 -6.8969184317939082e-05 0.0000000000000000e+00  3.0257645524127500e-04 -8.3390319937351161e-05 0.0000000000000000e+00  2.9681686677097020e-04 -8.1989851191981852e-05 0.0000000000000000e+00  2.9493173042165590e-04 -8.0770338430696947e-05 0.0000000000000000e+00  2.9184362117102929e-04 -6.8370124887131382e-05 0.0000000000000000e+00  3.4929279806489560e-04 -9.3585486518864318e-05 0.0000000000000000e+00  4.1293745042772235e-04 -1.1556083635856014e-04 0.0000000000000000e+00  2.9037572250618883e-04 -9.2083289913365279e-05 0.0000000000000000e+00  2.8881462193534245e-04 -9.1862513448544812e-05 0.0000000000000000e+00  3.8774708570233122e-04 -1.1548392660207739e-05 0.0000000000000000e+00  3.9469787555797135e-04 -2.1082716455126196e-05 0.0000000000000000e+00  4.7653678254356820e-04 -2.1325469638784801e-05 0.0000000000000000e+00  3.8666318108460519e-04 -1.1842048619726029e-05 0.0000000000000000e+00  2.8583111604546638e-04 -1.6159661593312123e-05 0.0000000000000000e+00  2.7146627543162233e-04 -3.7427664194035064e-06 0.0000000000000000e+00  2.8841733392263690e-04 -1.7304019725100875e-05 0.0000000000000000e+00  2.8296652706438151e-04 -1.7121649035597240e-05 0.0000000000000000e+00  2.8082091266851204e-04 -1.6214099499474921e-05 0.0000000000000000e+00  2.6957439552492701e-04 -3.5377668264283140e-06 0.0000000000000000e+00  3.3241763530954613e-04 -1.7374842484361991e-05 0.0000000000000000e+00  3.9799759449335350e-04 -2.3974636287617767e-05 0.0000000000000000e+00  2.8505645010606917e-04 -2.9532770359144112e-05 0.0000000000000000e+00  2.8291744893832579e-04 -2.9649492806790032e-05 0.0000000000000000e+00  3.0960028524290600e-04 7.8049224672786056e-05 0.0000000000000000e+00  3.1371182991294999e-04 7.2532602124187345e-05 0.0000000000000000e+00  3.7897665299541089e-04 9.0137820269991072e-05 0.0000000000000000e+00  3.0506891629637566e-04 7.7970921143316355e-05 0.0000000000000000e+00  2.2872667571368770e-04 5.1703126453262395e-05 0.0000000000000000e+00  2.0798936029184668e-04 6.1849007244082094e-05 0.0000000000000000e+00  2.3030669447380531e-04 5.1318101281789764e-05 0.0000000000000000e+00  2.2600304650545174e-04 5.0226376417929117e-05 0.0000000000000000e+00  2.2423314515904964e-04 5.0366949217818230e-05 0.0000000000000000e+00  2.0638671570785621e-04 6.1632080435420310e-05 0.0000000000000000e+00  2.6494170181946678e-04 6.0980243082591845e-05 0.0000000000000000e+00  3.2107787877273466e-04 6.9965131263832769e-05 0.0000000000000000e+00  2.3619493692994997e-04 3.7096669357676313e-05 0.0000000000000000e+00  2.3501214029088922e-04 3.6571451822644239e-05 0.0000000000000000e+00  1.8032627493365307e-04 1.5706939870884862e-04 0.0000000000000000e+00  1.8633698329812741e-04 1.5464862505329513e-04 0.0000000000000000e+00  2.2358927331040944e-04 1.8856664944184225e-04 0.0000000000000000e+00  1.7496796100799757e-04 1.6013531570087245e-04 0.0000000000000000e+00  1.3571368033641669e-04 1.1196813643378027e-04 0.0000000000000000e+00  1.1235088008906240e-04 1.1830891436589870e-04 0.0000000000000000e+00  1.3708872909771487e-04 1.1222777088405598e-04 0.0000000000000000e+00  1.3453681786216329e-04 1.1002664296614069e-04 0.0000000000000000e+00  1.3318035183080971e-04 1.0954895402759914e-04 0.0000000000000000e+00  1.1105349706885324e-04 1.1754362450273620e-04 0.0000000000000000e+00  1.5692421252379288e-04 1.3043542643129032e-04 0.0000000000000000e+00  1.9417377806435970e-04 1.5062466157532035e-04 0.0000000000000000e+00  1.5198381281238219e-04 9.8211006194711328e-05 0.0000000000000000e+00  1.5153757034396488e-04 9.7482611914389736e-05 0.0000000000000000e+00  2.4917784957407835e-05 2.1072424405862831e-04 0.0000000000000000e+00  2.9249448700175760e-05 2.1302160237013785e-04 0.0000000000000000e+00  3.3907056863200196e-05 2.5805782309190107e-04 0.0000000000000000e+00  1.6379551982421563e-05 2.1524555319870695e-04 0.0000000000000000e+00  2.2159659064219902e-05 1.5471294940202942e-04 0.0000000000000000e+00  -2.1537590216601308e-07 1.5656921139874385e-04 0.0000000000000000e+00  2.2767385734862983e-05 1.5597123542844418e-04 0.0000000000000000e+00  2.2431124955264149e-05 1.5305231456194367e-04 0.0000000000000000e+00  2.1939698538921051e-05 1.5197347220089285e-04 0.0000000000000000e+00  -6.4639943448889612e-07 1.5544381508182054e-04 0.0000000000000000e+00  2.4968542238358132e-05 1.7990653173098644e-04 0.0000000000000000e+00  4.0321752009332581e-05 2.1065911153266269e-04 0.0000000000000000e+00  4.4171350614925949e-05 1.4443011023309823e-04 0.0000000000000000e+00  4.4361502815074995e-05 1.4356499086737957e-04 0.0000000000000000e+00  -1.3436578830777196e-04 2.3242444753676522e-04 0.0000000000000000e+00  -1.3128985987182582e-04 2.4004278892592395e-04 0.0000000000000000e+00  -1.6098374971503361e-04 2.8835145038663988e-04 0.0000000000000000e+00  -1.4340767498770117e-04 2.3840469846721883e-04 0.0000000000000000e+00  -9.4621357216831731e-05 1.7405352570244766e-04 0.0000000000000000e+00  -1.1266098317613296e-04 1.7103331767601048e-04 0.0000000000000000e+00  -9.4872323155267312e-05 1.7598246676089589e-04 0.0000000000000000e+00  -9.2997453967304060e-05 1.7270761933863620e-04 0.0000000000000000e+00  -9.2769625252657367e-05 1.7112148073825952e-04 0.0000000000000000e+00  -1.1216704685193294e-04 1.6971970216799238e-04 0.0000000000000000e+00  -1.1085542222909291e-04 2.0197540895453616e-04 0.0000000000000000e+00  -1.2254870256240199e-04 2.3876841038642259e-04 0.0000000000000000e+00  -7.0437914394597505e-05 1.6842363574597221e-04 0.0000000000000000e+00  -6.9378687800293891e-05 1.6706731953994511e-04 0.0000000000000000e+00  -2.7126040398816774e-04 2.1824556434349310e-04 0.0000000000000000e+00  -2.7233819020930079e-04 2.2960703666998294e-04 0.0000000000000000e+00  -3.3093700112166787e-04 2.7421785306098784e-04 0.0000000000000000e+00  -2.8279663677838629e-04 2.2536745097290688e-04 0.0000000000000000e+00  -1.9659006126226329e-04 1.6674874907644222e-04 0.0000000000000000e+00  -2.0768106989812890e-04 1.5920400245527167e-04 0.0000000000000000e+00  -1.9810637938861818e-04 1.6915240000820651e-04 0.0000000000000000e+00  -1.9432062769055247e-04 1.6608629617388687e-04 0.0000000000000000e+00  -1.9321993156966061e-04 1.6423277721805610e-04 0.0000000000000000e+00  -2.0674110641652046e-04 1.5822458341070112e-04 0.0000000000000000e+00  -2.2964829319143407e-04 1.9310399315470867e-04 0.0000000000000000e+00  -2.6564575660573044e-04 2.2968224163749681e-04 0.0000000000000000e+00  -1.7425640735612138e-04 1.6684439390910252e-04 0.0000000000000000e+00  -1.7245915128799810e-04 1.6563708888432140e-04 0.0000000000000000e+00  -3.7165377347267263e-04 1.7340260002344902e-04 0.0000000000000000e+00  -3.7204145821235492e-04 1.8452350067280264e-04 0.0000000000000000e+00  -4.5107356481406344e-04 2.1938055280630174e-04 0.0000000000000000e+00  -3.7881000070085342e-04 1.7785096094937065e-04 0.0000000000000000e+00  -2.6990728577281047e-04 1.3478653696531593e-04 0.0000000000000000e+00  -2.7129621484384630e-04 1.2348630558412660e-04 0.0000000000000000e+00  -2.7121837444987388e-04 1.3672791721911772e-04 0.0000000000000000e+00  -2.6608025682196390e-04 1.3429960837459302e-04 0.0000000000000000e+00  -2.6435659991230846e-04 1.3249634286383600e-04 0.0000000000000000e+00  -2.6985200802535328e-04 1.2264664093361685e-04 0.0000000000000000e+00  -3.1358980381532650e-04 1.5519912159751224e-04 0.0000000000000000e+00  -3.6838168184234364e-04 1.8599165770062268e-04 0.0000000000000000e+00  -2.5156674216336527e-04 1.3999209688365390e-04 0.0000000000000000e+00  -2.4930510517043899e-04 1.3911232445713444e-04 0.0000000000000000e+00  -4.0990276231197100e-04 9.9769283539307037e-05 0.0000000000000000e+00  -4.1517067787702505e-04 1.1141502667739685e-04 0.0000000000000000e+00  -5.0248527752481823e-04 1.3061091113035055e-04 0.0000000000000000e+00  -4.1193162011336559e-04 1.0157624579172235e-04 0.0000000000000000e+00  -3.0058567717074902e-04 8.1548157856052393e-05 0.0000000000000000e+00  -2.9422164395355975e-04 6.8945703472677013e-05 0.0000000000000000e+00  -3.0309701942695343e-04 8.3390288540003535e-05 0.0000000000000000e+00  -2.9733856209885332e-04 8.1956030496922058e-05 0.0000000000000000e+00  -2.9524330275899246e-04 8.0465549771145339e-05 0.0000000000000000e+00  -2.9233354739539071e-04 6.8344264668696188e-05 0.0000000000000000e+00  -3.4988964400744604e-04 9.3494782294043329e-05 0.0000000000000000e+00  -4.1116634163883048e-04 1.1296254240831686e-04 0.0000000000000000e+00  -2.9082555007950905e-04 9.1804389479643148e-05 0.0000000000000000e+00  -2.8889104772753774e-04 9.1478179174244974e-05 0.0000000000000000e+00  -3.8803631730724431e-04 1.1470009971509238e-05 0.0000000000000000e+00  -3.9503751881683877e-04 2.0846661231759136e-05 0.0000000000000000e+00  -4.7706025004005465e-04 2.1478402839688433e-05 0.0000000000000000e+00  -3.8833040445070013e-04 1.1864862282107011e-05 0.0000000000000000e+00  -2.8614394119916482e-04 1.5973489502232549e-05 0.0000000000000000e+00  -2.7162028862098429e-04 3.5311597470702444e-06 0.0000000000000000e+00  -2.8877009287514067e-04 1.7128759238645711e-05 0.0000000000000000e+00  -2.8327556487151142e-04 1.6942248702499473e-05 0.0000000000000000e+00  -2.8112983282563070e-04 1.6020754126259105e-05 0.0000000000000000e+00  -2.7003200500187014e-04 3.3321397085870534e-06 0.0000000000000000e+00  -3.3275424209644727e-04 1.7275827524713982e-05 0.0000000000000000e+00  -3.9854904384562136e-04 2.3986473067099257e-05 0.0000000000000000e+00  -2.8540730849141590e-04 2.9384438154396041e-05 0.0000000000000000e+00  -2.8326558689369829e-04 2.9498085105355578e-05 0.0000000000000000e+00  -3.1339978307055616e-04 -7.4815821451159557e-05 0.0000000000000000e+00  -3.0737236766325784e-04 -7.7475641693513307e-05 0.0000000000000000e+00  -3.7825848537408687e-04 -9.1699886905069816e-05 0.0000000000000000e+00  -3.0654785013785649e-04 -8.1541397504315472e-05 0.0000000000000000e+00  -2.2875035493008121e-04 -5.1732330722983022e-05 0.0000000000000000e+00  -2.0745069559019813e-04 -6.2409456544863931e-05 0.0000000000000000e+00  -2.2944762839505355e-04 -5.2432479551456903e-05 0.0000000000000000e+00  -2.2537301470760402e-04 -5.1213579679487882e-05 0.0000000000000000e+00  -2.2468751845038240e-04 -5.0645520052547508e-05 0.0000000000000000e+00  -2.0587110805264693e-04 -6.2220458935534931e-05 0.0000000000000000e+00  -2.6463419658902363e-04 -6.1923948102819828e-05 0.0000000000000000e+00  -3.2067431436001985e-04 -7.0068153313752136e-05 0.0000000000000000e+00  -2.3656596558619352e-04 -3.7661632888540800e-05 0.0000000000000000e+00  -2.3500878867227070e-04 -3.7024071238033637e-05 0.0000000000000000e+00  -1.8147420006728678e-04 -1.5737648239290595e-04 0.0000000000000000e+00  -1.8626331096001313e-04 -1.5500266906744324e-04 0.0000000000000000e+00  -2.2403851488419520e-04 -1.8895995447494300e-04 0.0000000000000000e+00  -1.7306338447581102e-04 -1.5950471006788896e-04 0.0000000000000000e+00  -1.3608549351974434e-04 -1.1226171607776132e-04 0.0000000000000000e+00  -1.1256377186492781e-04 -1.1858335121479722e-04 0.0000000000000000e+00  -1.3726272782292725e-04 -1.1252505566363201e-04 0.0000000000000000e+00  -1.3474269509536940e-04 -1.1033729494514498e-04 0.0000000000000000e+00  -1.3352005698032972e-04 -1.0984218049447467e-04 0.0000000000000000e+00  -1.1162015227647797e-04 -1.1809993376732839e-04 0.0000000000000000e+00  -1.5727258970803462e-04 -1.3074861321615288e-04 0.0000000000000000e+00  -1.9731848713033074e-04 -1.5190832038665137e-04 0.0000000000000000e+00  -1.5233660228562964e-04 -9.8519337479096450e-05 0.0000000000000000e+00  -1.5156313550107429e-04 -9.7480945029656670e-05 0.0000000000000000e+00  -2.4740625493983198e-05 -2.1174065987385459e-04 0.0000000000000000e+00  -3.0179080286952729e-05 -2.1378085472617021e-04 0.0000000000000000e+00  -3.4420481978597847e-05 -2.5844885576543772e-04 0.0000000000000000e+00  -1.7256208473071378e-05 -2.1461846040921127e-04 0.0000000000000000e+00  -2.2360997805529448e-05 -1.5524966784517255e-04 0.0000000000000000e+00  -1.0413318210222573e-07 -1.5679970705159593e-04 0.0000000000000000e+00  -2.3101331755491406e-05 -1.5622144914890568e-04 0.0000000000000000e+00  -2.2739195943252916e-05 -1.5324364556109396e-04 0.0000000000000000e+00  -2.2140318116069987e-05 -1.5213653901544966e-04 0.0000000000000000e+00  2.6312641784429923e-07 -1.5605957763356498e-04 0.0000000000000000e+00  -2.5272277331184491e-05 -1.8012990820453687e-04 0.0000000000000000e+00  -3.9726337376834835e-05 -2.1161595421059071e-04 0.0000000000000000e+00  -4.4412302771566832e-05 -1.4454384275568380e-04 0.0000000000000000e+00  -4.4568049524375199e-05 -1.4324717954707498e-04 0.0000000000000000e+00  1.3858129125474030e-04 -2.3250128351599516e-04 0.0000000000000000e+00  1.3801066788163735e-04 -2.3519273835257410e-04 0.0000000000000000e+00  1.0294265427314189e-04 -1.7333971732162468e-04 0.0000000000000000e+00  1.0936240022259245e-04 -1.7194252745544701e-04 0.0000000000000000e+00  1.1099583501846302e-04 -1.7201109555513283e-04 0.0000000000000000e+00  1.0417068462051512e-04 -1.7299355638085580e-04 0.0000000000000000e+00  1.0232531818110852e-04 -1.8825668062971343e-04 0.0000000000000000e+00  1.0234468510570767e-04 -1.8706922189996576e-04 0.0000000000000000e+00  1.0211453985353985e-04 -1.7151300493488698e-04 0.0000000000000000e+00  1.0852367559496547e-04 -1.7015250267541068e-04 0.0000000000000000e+00  1.1030844523303332e-04 -1.6971147733523513e-04 0.0000000000000000e+00  1.0340819941374662e-04 -1.7142721331201403e-04 0.0000000000000000e+00  1.2535932211256629e-04 -2.3363995396450017e-04 0.0000000000000000e+00  1.2328512342883562e-04 -2.3527277926694388e-04 0.0000000000000000e+00  8.1318966651695385e-05 -1.7156372744138516e-04 0.0000000000000000e+00  7.2854759620922686e-05 -1.6958544499943656e-04 0.0000000000000000e+00  7.4715283660077109e-05 -1.6949869068367445e-04 0.0000000000000000e+00  8.3856283543524507e-05 -1.7215465890333220e-04 0.0000000000000000e+00  7.3560041555909545e-05 -1.6791363516696379e-04 0.0000000000000000e+00  8.2406942984625969e-05 -1.7027171315885665e-04 0.0000000000000000e+00  8.0239189903299278e-05 -1.6998333621294975e-04 0.0000000000000000e+00  7.0778153584625587e-05 -1.6722440537064929e-04 0.0000000000000000e+00  2.7518530360514434e-04 -2.2671860676309560e-04 0.0000000000000000e+00  2.7473094956533819e-04 -2.2002012598041921e-04 0.0000000000000000e+00  2.0275173502805067e-04 -1.6341852397726964e-04 0.0000000000000000e+00  2.0723222351236303e-04 -1.6114821338032939e-04 0.0000000000000000e+00  2.0606914679798538e-04 -1.6211457119588154e-04 0.0000000000000000e+00  2.0237653669771602e-04 -1.6554069854415201e-04 0.0000000000000000e+00  2.1246771726811560e-04 -1.8124253096232814e-04 0.0000000000000000e+00  2.1270801160323474e-04 -1.7976753219232981e-04 0.0000000000000000e+00  2.0410876472287811e-04 -1.6037183370962968e-04 0.0000000000000000e+00  2.0036775165361198e-04 -1.6366417583897126e-04 0.0000000000000000e+00  2.0102945589926935e-04 -1.6200643900172714e-04 0.0000000000000000e+00  2.0499875648739130e-04 -1.5880852426999672e-04 0.0000000000000000e+00  2.6829739470146148e-04 -2.3120553908945470e-04 0.0000000000000000e+00  2.6301133028503132e-04 -2.2119543303420139e-04 0.0000000000000000e+00  1.8446869905681983e-04 -1.6725300857140955e-04 0.0000000000000000e+00  1.7675155446610557e-04 -1.6750539881046651e-04 0.0000000000000000e+00  1.7691397526799254e-04 -1.6671635769428811e-04 0.0000000000000000e+00  1.8701044874223154e-04 -1.6861994562241702e-04 0.0000000000000000e+00  1.7584122625720176e-04 -1.6596568092783629e-04 0.0000000000000000e+00  1.8454349148515190e-04 -1.6688944864938349e-04 0.0000000000000000e+00  1.8249492872090850e-04 -1.6588972966688590e-04 0.0000000000000000e+00  1.7337397067628202e-04 -1.6543985331453643e-04 0.0000000000000000e+00  3.7695871066043842e-04 -1.8222396427385496e-04 0.0000000000000000e+00  3.6849960859474041e-04 -1.7074883259062977e-04 0.0000000000000000e+00  2.7036827704997980e-04 -1.2872714008907259e-04 0.0000000000000000e+00  2.7189406897295816e-04 -1.2511392420721138e-04 0.0000000000000000e+00  2.6962019888772642e-04 -1.2564895836529968e-04 0.0000000000000000e+00  2.7114790314710675e-04 -1.3129365704638398e-04 0.0000000000000000e+00  2.9074968982621625e-04 -1.4615622346639994e-04 0.0000000000000000e+00  2.9050677153811264e-04 -1.4402193736519036e-04 0.0000000000000000e+00  2.6840121090958063e-04 -1.2497664479251412e-04 0.0000000000000000e+00  2.6828810703794935e-04 -1.2976794346668388e-04 0.0000000000000000e+00  2.6796765936729354e-04 -1.2762595572932906e-04 0.0000000000000000e+00  2.6844724736508599e-04 -1.2314802670138737e-04 0.0000000000000000e+00  3.6718198