<?xml version="1.0"?>
<VTKFile type="UnstructuredGrid"  version="0.1"  >
<UnstructuredGrid>
<Piece  NumberOfPoints="3120" NumberOfCells="11982">
<Points>
<DataArray  type="Float64"  NumberOfComponents="3"  format="ascii">0.175 0 0  0.18445 0 0  0.175 0.00945 0  0.16555 0 0  0.193 0 0  0.175 0.018 0  0.157 0 0  0.175 0 0.006  0.193 0 0.006  0.175 0.018 0.006  0.157 0 0.006  0.175 -0.00945 0  0.175 -0.018 0  0.175 -0.018 0.006  0.1529482566072435 0.0633532422280406 0  0.1704095797717068 0.07058595909974082 0  0.1616789181894752 0.06696960066389071 0  0.1580625597536251 0.07570026224612236 0  0.145049086604272 0.0600812988813191 0  0.1547906164069036 0.08359943224909387 0  0.1783087497746783 0.07385790244646231 0  0.1783087497746783 0.07385790244646231 0.006  0.145049086604272 0.0600812988813191 0.006  0.1547906164069036 0.08359943224909387 0.006  0.1616789181894752 0.06696960066389071 0.006  0.1652952766253253 0.05823893908165905 0  0.1685672199720468 0.05033976907868755 0  0.1685672199720468 0.05033976907868755 0.006  0.1170615276254329 0.1170615276254329 0  0.1304258457898587 0.1304258457898587 0  0.1237436867076458 0.1237436867076458 0  0.117061527625433 0.1304258457898587 0  0.111015764646288 0.111015764646288 0  0.111015764646288 0.1364716087690037 0  0.1364716087690037 0.1364716087690036 0  0.1364716087690037 0.1364716087690036 0.006  0.111015764646288 0.111015764646288 0.006  0.111015764646288 0.1364716087690037 0.006  0.1237436867076458 0.1237436867076458 0.006  0.1304258457898587 0.1170615276254329 0  0.1364716087690037 0.1110157646462879 0  0.1364716087690037 0.1110157646462879 0.006  0.06335324222804062 0.1529482566072435 0  0.07058595909974082 0.1704095797717068 0  0.06696960066389071 0.1616789181894752 0  0.05823893908165905 0.1652952766253253 0  0.06008129888131911 0.145049086604272 0  0.05033976907868755 0.1685672199720468 0  0.07385790244646233 0.1783087497746783 0  0.07385790244646233 0.1783087497746783 0.006  0.06008129888131911 0.145049086604272 0.006  0.05033976907868755 0.1685672199720468 0.006  0.06696960066389071 0.1616789181894752 0.006  0.07570026224612236 0.1580625597536251 0  0.08359943224909387 0.1547906164069036 0  0.08359943224909387 0.1547906164069036 0.006  1.013701387994221e-17 0.16555 0  1.129430510513647e-17 0.18445 0  1.071565949253934e-17 0.175 0  -0.00944999999999999 0.175 0  9.613477373306723e-18 0.157 0  -0.01799999999999999 0.175 0  1.181784161177196e-17 0.193 0  1.181784161177196e-17 0.193 0.006  9.613477373306723e-18 0.157 0.006  -0.01799999999999999 0.175 0.006  1.071565949253934e-17 0.175 0.006  0.00945000000000001 0.175 0  0.01800000000000001 0.175 0  0.01800000000000001 0.175 0.006  -0.06335324222804059 0.1529482566072435 0  -0.0705859590997408 0.1704095797717068 0  -0.0669696006638907 0.1616789181894752 0  -0.07570026224612236 0.1580625597536251 0  -0.06008129888131909 0.145049086604272 0  -0.08359943224909386 0.1547906164069036 0  -0.07385790244646231 0.1783087497746783 0  -0.07385790244646231 0.1783087497746783 0.006  -0.06008129888131909 0.145049086604272 0.006  -0.08359943224909386 0.1547906164069036 0.006  -0.0669696006638907 0.1616789181894752 0.006  -0.05823893908165904 0.1652952766253253 0  -0.05033976907868754 0.1685672199720468 0  -0.05033976907868754 0.1685672199720468 0.006  -0.1170615276254329 0.1170615276254329 0  -0.1304258457898587 0.1304258457898587 0  -0.1237436867076458 0.1237436867076458 0  -0.1304258457898587 0.117061527625433 0  -0.111015764646288 0.111015764646288 0  -0.1364716087690037 0.111015764646288 0  -0.1364716087690036 0.1364716087690037 0  -0.1364716087690036 0.1364716087690037 0.006  -0.111015764646288 0.111015764646288 0.006  -0.1364716087690037 0.111015764646288 0.006  -0.1237436867076458 0.1237436867076458 0.006  -0.1170615276254329 0.1304258457898587 0  -0.1110157646462879 0.1364716087690037 0  -0.1110157646462879 0.1364716087690037 0.006  -0.1529482566072435 0.06335324222804062 0  -0.1704095797717068 0.07058595909974083 0  -0.1616789181894752 0.06696960066389072 0  -0.1652952766253253 0.05823893908165906 0  -0.145049086604272 0.06008129888131911 0  -0.1685672199720468 0.05033976907868756 0  -0.1783087497746783 0.07385790244646234 0  -0.1783087497746783 0.07385790244646234 0.006  -0.145049086604272 0.06008129888131911 0.006  -0.1685672199720468 0.05033976907868756 0.006  -0.1616789181894752 0.06696960066389072 0.006  -0.1580625597536251 0.07570026224612239 0  -0.1547906164069036 0.08359943224909389 0  -0.1547906164069036 0.08359943224909389 0.006  -0.16555 2.027402775988443e-17 0  -0.18445 2.258861021027293e-17 0  -0.175 2.143131898507868e-17 0  -0.175 -0.009449999999999979 0  -0.157 1.922695474661345e-17 0  -0.175 -0.01799999999999998 0  -0.193 2.363568322354391e-17 0  -0.193 2.363568322354391e-17 0.006  -0.157 1.922695474661345e-17 0.006  -0.175 -0.01799999999999998 0.006  -0.175 2.143131898507868e-17 0.006  -0.175 0.009450000000000021 0  -0.175 0.01800000000000002 0  -0.175 0.01800000000000002 0.006  -0.1529482566072435 -0.06335324222804059 0  -0.1704095797717069 -0.07058595909974079 0  -0.1616789181894752 -0.06696960066389068 0  -0.1580625597536251 -0.07570026224612235 0  -0.145049086604272 -0.06008129888131908 0  -0.1547906164069036 -0.08359943224909384 0  -0.1783087497746783 -0.0738579024464623 0  -0.1783087497746783 -0.0738579024464623 0.006  -0.145049086604272 -0.06008129888131908 0.006  -0.1547906164069036 -0.08359943224909384 0.006  -0.1616789181894752 -0.06696960066389068 0.006  -0.1652952766253253 -0.05823893908165902 0  -0.1685672199720468 -0.05033976907868752 0  -0.1685672199720468 -0.05033976907868752 0.006  -0.117061527625433 -0.1170615276254329 0  -0.1304258457898587 -0.1304258457898587 0  -0.1237436867076458 -0.1237436867076458 0  -0.117061527625433 -0.1304258457898587 0  -0.111015764646288 -0.111015764646288 0  -0.111015764646288 -0.1364716087690037 0  -0.1364716087690037 -0.1364716087690036 0  -0.1364716087690037 -0.1364716087690036 0.006  -0.111015764646288 -0.111015764646288 0.006  -0.111015764646288 -0.1364716087690037 0.006  -0.1237436867076458 -0.1237436867076458 0.006  -0.1304258457898587 -0.1170615276254329 0  -0.1364716087690037 -0.1110157646462879 0  -0.1364716087690037 -0.1110157646462879 0.006  -0.0633532422280407 -0.1529482566072435 0  -0.07058595909974091 -0.1704095797717068 0  -0.06696960066389081 -0.1616789181894751 0  -0.05823893908165915 -0.1652952766253252 0  -0.06008129888131918 -0.145049086604272 0  -0.05033976907868765 -0.1685672199720468 0  -0.07385790244646243 -0.1783087497746783 0  -0.07385790244646243 -0.1783087497746783 0.006  -0.06008129888131918 -0.145049086604272 0.006  -0.05033976907868765 -0.1685672199720468 0.006  -0.06696960066389081 -0.1616789181894751 0.006  -0.07570026224612246 -0.158062559753625 0  -0.08359943224909397 -0.1547906164069035 0  -0.08359943224909397 -0.1547906164069035 0.006  -3.041104163982664e-17 -0.16555 0  -3.388291531540939e-17 -0.18445 0  -3.214697847761802e-17 -0.175 0  0.009449999999999967 -0.175 0  -2.884043211992017e-17 -0.157 0  0.01799999999999997 -0.175 0  -3.545352483531587e-17 -0.193 0  -3.545352483531587e-17 -0.193 0.006  -2.884043211992017e-17 -0.157 0.006  0.01799999999999997 -0.175 0.006  -3.214697847761802e-17 -0.175 0.006  -0.009450000000000033 -0.175 0  -0.01800000000000003 -0.175 0  -0.01800000000000003 -0.175 0.006  0.06335324222804065 -0.1529482566072435 0  0.07058595909974086 -0.1704095797717068 0  0.06696960066389075 -0.1616789181894752 0  0.07570026224612242 -0.1580625597536251 0  0.06008129888131913 -0.145049086604272 0  0.08359943224909391 -0.1547906164069035 0  0.07385790244646236 -0.1783087497746783 0  0.07385790244646236 -0.1783087497746783 0.006  0.06008129888131913 -0.145049086604272 0.006  0.08359943224909391 -0.1547906164069035 0.006  0.06696960066389075 -0.1616789181894752 0.006  0.05823893908165909 -0.1652952766253253 0  0.05033976907868759 -0.1685672199720468 0  0.05033976907868759 -0.1685672199720468 0.006  0.1170615276254329 -0.117061527625433 0  0.1304258457898587 -0.1304258457898587 0  0.1237436867076458 -0.1237436867076458 0  0.1304258457898587 -0.117061527625433 0  0.1110157646462879 -0.111015764646288 0  0.1364716087690036 -0.111015764646288 0  0.1364716087690036 -0.1364716087690037 0  0.1364716087690036 -0.1364716087690037 0.006  0.1110157646462879 -0.111015764646288 0.006  0.1364716087690036 -0.111015764646288 0.006  0.1237436867076458 -0.1237436867076458 0.006  0.1170615276254329 -0.1304258457898587 0  0.1110157646462879 -0.1364716087690037 0  0.1110157646462879 -0.1364716087690037 0.006  0.1529482566072435 -0.0633532422280407 0  0.1704095797717068 -0.07058595909974093 0  0.1616789181894751 -0.06696960066389081 0  0.1652952766253252 -0.05823893908165915 0  0.145049086604272 -0.06008129888131919 0  0.1685672199720468 -0.05033976907868765 0  0.1783087497746783 -0.07385790244646244 0  0.1783087497746783 -0.07385790244646244 0.006  0.145049086604272 -0.06008129888131919 0.006  0.1685672199720468 -0.05033976907868765 0.006  0.1616789181894751 -0.06696960066389081 0.006  0.158062559753625 -0.07570026224612246 0  0.1547906164069035 -0.08359943224909397 0  0.1547906164069035 -0.08359943224909397 0.006  0.1816821590571039 0.006682159107321884 0  0.1683178408904039 0.006682159054829612 0  0.1905884572626798 0.009000000009422473 0  0.1839999999697972 0.01558845728555746 0  0.1659999999713115 0.01558845725155659 0  0.1594115427217315 0.008999999982422135 0  0.1659999999999918 0 0.006  0.1839999999999864 0 0.006  0.1905884572626798 0.009000000009422473 0.006  0.1839999999697972 0.01558845728555746 0.006  0.1659999999713115 0.01558845725155659 0.006  0.1594115427217315 0.008999999982422135 0.006  0.1816821590822129 -0.006682159082212883 0  0.1683178409177871 -0.006682159082212875 0  0.1594115427217313 -0.008999999982421729 0  0.1659999999713265 -0.01558845725156525 0  0.1839999999697972 -0.01558845728555747 0  0.1905884572626846 -0.009000000009414219 0  0.1839999999697972 -0.01558845728555747 0.006  0.1905884572626846 -0.00
[...]
<PointData  Vectors="f_668"> 
<DataArray  type="Float64"  Name="f_668"  NumberOfComponents="3" format="ascii">-3.1630808547008539e-02 1.6553261656684608e+00 0.0000000000000000e+00  1.4381470623220285e-01 1.7170383768575506e+00 0.0000000000000000e+00  1.6298782022624100e-01 2.1039677925313494e+00 0.0000000000000000e+00  1.3295060343827625e-01 1.7095168437899362e+00 0.0000000000000000e+00  3.1853694926900028e-01 1.7197775349540005e+00 0.0000000000000000e+00  4.1220716582521294e-01 2.5281890938550267e+00 0.0000000000000000e+00  3.1630604505854781e-01 1.7142710036861708e+00 0.0000000000000000e+00  2.3616211669370407e-01 1.6981579538630618e+00 0.0000000000000000e+00  2.9113066203788118e-01 1.6547555863757888e+00 0.0000000000000000e+00  3.8402788885079547e-01 2.4796892636105436e+00 0.0000000000000000e+00  2.8685334964552806e-01 1.6460367375295435e+00 0.0000000000000000e+00  1.2436127462049683e-01 1.3355635607991876e+00 0.0000000000000000e+00  2.1911542626230365e-01 8.3064326742684369e-01 0.0000000000000000e+00  1.9073284238621588e-01 7.7248494213912244e-01 0.0000000000000000e+00  2.5889977955385574e-01 6.1889368412787658e+00 0.0000000000000000e+00  2.9687453271575043e-01 6.2190492347214024e+00 0.0000000000000000e+00  -3.2888506954715535e-01 5.9676266693904063e+00 0.0000000000000000e+00  2.9891819539782821e-01 6.5594480177558845e+00 0.0000000000000000e+00  9.2119695497843890e-01 6.2335124488218643e+00 0.0000000000000000e+00  1.0076327998371506e+00 6.8493328392747950e+00 0.0000000000000000e+00  9.2895486876735178e-01 6.2559574052882132e+00 0.0000000000000000e+00  8.3956047563458525e-01 6.0149361832570669e+00 0.0000000000000000e+00  8.2499708407559014e-01 5.9807598702346603e+00 0.0000000000000000e+00  9.1247816893614242e-01 6.6509350449715399e+00 0.0000000000000000e+00  6.3356538111790572e-01 6.1649541276712174e+00 0.0000000000000000e+00  2.7627622876349811e-01 5.9029569993350632e+00 0.0000000000000000e+00  8.4638493901189849e-01 5.3729859604545114e+00 0.0000000000000000e+00  7.5369390049528118e-01 5.1649732629200678e+00 0.0000000000000000e+00  3.2789145816527965e-01 9.7082129174951053e+00 0.0000000000000000e+00  3.8952860492657271e-01 9.7557264969320876e+00 0.0000000000000000e+00  -5.9109942860729980e-01 9.3522372007447157e+00 0.0000000000000000e+00  3.9887515292829367e-01 1.0019569138689270e+01 0.0000000000000000e+00  1.3719187603860368e+00 9.7908944317484146e+00 0.0000000000000000e+00  1.4333341955561447e+00 1.0116404720167262e+01 0.0000000000000000e+00  1.3838901170082731e+00 9.8254626987884226e+00 0.0000000000000000e+00  1.2475439397575538e+00 9.4478899135315952e+00 0.0000000000000000e+00  1.2251599135931353e+00 9.3947214104997840e+00 0.0000000000000000e+00  1.2922669152457591e+00 9.8022446542596402e+00 0.0000000000000000e+00  9.2045328417048522e-01 9.6776283999044672e+00 0.0000000000000000e+00  3.5398181688059654e-01 9.5322921512982113e+00 0.0000000000000000e+00  1.3348840369763815e+00 9.0885523983424914e+00 0.0000000000000000e+00  1.1866346432395711e+00 8.7637923969417315e+00 0.0000000000000000e+00  3.5878570834368162e-01 1.1783558345539049e+01 0.0000000000000000e+00  4.3337730443263223e-01 1.1842069843225060e+01 0.0000000000000000e+00  -7.5401078711225245e-01 1.1347007944774562e+01 0.0000000000000000e+00  4.9524575807310534e-01 1.2015582518817229e+01 0.0000000000000000e+00  1.6188151683706076e+00 1.1884402176103723e+01 0.0000000000000000e+00  1.6337723867115173e+00 1.1844477867521315e+01 0.0000000000000000e+00  1.6334451821554536e+00 1.1927266864847891e+01 0.0000000000000000e+00  1.4692366577287228e+00 1.1466249840152329e+01 0.0000000000000000e+00  1.4421053333425629e+00 1.1400810018441296e+01 0.0000000000000000e+00  1.4647312312641618e+00 1.1471173551153903e+01 0.0000000000000000e+00  1.0742553664220005e+00 1.1746736389148893e+01 0.0000000000000000e+00  4.6497426603748027e-01 1.1795628598141127e+01 0.0000000000000000e+00  1.6028531045798731e+00 1.1415781416445313e+01 0.0000000000000000e+00  1.4301960344258093e+00 1.1039802444472441e+01 0.0000000000000000e+00  3.5901062456672284e-01 1.2062659242683127e+01 0.0000000000000000e+00  3.8664232850663793e-01 1.2088691965692753e+01 0.0000000000000000e+00  -8.2054301451291722e-01 1.1581757722245758e+01 0.0000000000000000e+00  4.3940081510032164e-01 1.2109947226197500e+01 0.0000000000000000e+00  1.6207181451075803e+00 1.2159885658574318e+01 0.0000000000000000e+00  1.5798984285549926e+00 1.1762560321146141e+01 0.0000000000000000e+00  1.6160642549389490e+00 1.2183675150791572e+01 0.0000000000000000e+00  1.4508026899848865e+00 1.1714338121631702e+01 0.0000000000000000e+00  1.4245151091276640e+00 1.1649159292879595e+01 0.0000000000000000e+00  1.4094761295582379e+00 1.1380681110173915e+01 0.0000000000000000e+00  1.0438793533755353e+00 1.1996649121884868e+01 0.0000000000000000e+00  3.9197378722623272e-01 1.2180179395042526e+01 0.0000000000000000e+00  1.6375771894779649e+00 1.2023630774722140e+01 0.0000000000000000e+00  1.4659865107144170e+00 1.1629257120157575e+01 0.0000000000000000e+00  2.2751932165371563e-01 1.0475570675268848e+01 0.0000000000000000e+00  2.9251968957839813e-01 1.0528322905235502e+01 0.0000000000000000e+00  -7.5558128622524057e-01 1.0080856031071923e+01 0.0000000000000000e+00  3.2517255759713148e-01 1.0394522131904010e+01 0.0000000000000000e+00  1.3438330956314839e+00 1.0575061255567681e+01 0.0000000000000000e+00  1.2892956835391494e+00 9.9172979421031133e+00 0.0000000000000000e+00  1.3553331208893316e+00 1.0611970753584760e+01 0.0000000000000000e+00  1.2135154400040993e+00 1.0202432809417314e+01 0.0000000000000000e+00  1.1911836234644098e+00 1.0145278850222446e+01 0.0000000000000000e+00  1.1424256701848625e+00 9.5817737387499982e+00 0.0000000000000000e+00  8.6081442017314291e-01 1.0447922007726504e+01 0.0000000000000000e+00  2.7686624507837460e-01 1.0733034811170377e+01 0.0000000000000000e+00  1.4166955502417244e+00 1.0802903148182130e+01 0.0000000000000000e+00  1.2635056884022675e+00 1.0458765051474071e+01 0.0000000000000000e+00  1.1013627210381399e-01 7.3512869219505683e+00 0.0000000000000000e+00  1.5521661970747724e-01 7.3896791122442975e+00 0.0000000000000000e+00  -5.7146369851422429e-01 7.0711068934459753e+00 0.0000000000000000e+00  1.2772717510488801e-01 7.0981506689084553e+00 0.0000000000000000e+00  8.8414537310347641e-01 7.4212026440432437e+00 0.0000000000000000e+00  8.0981784968701787e-01 6.5885928380629464e+00 0.0000000000000000e+00  8.9238682985478601e-01 7.4485153339106844e+00 0.0000000000000000e+00  7.9432495163124861e-01 7.1571172868505446e+00 0.0000000000000000e+00  7.7836458376419171e-01 7.1154559132326147e+00 0.0000000000000000e+00  7.0698487245536989e-01 6.3383112475068595e+00 0.0000000000000000e+00  5.4956107419993272e-01 7.3319963538738318e+00 0.0000000000000000e+00  1.9717460635418108e-01 7.7352969565421219e+00 0.0000000000000000e+00  9.6850615494967862e-01 7.9447426991633732e+00 0.0000000000000000e+00  8.6518011457336064e-01 7.7121966078480817e+00 0.0000000000000000e+00  -4.1460719716322321e-02 3.0516735875729166e+00 0.0000000000000000e+00  -3.3573439339877005e-02 3.0614936738761576e+00 0.0000000000000000e+00  -3.2719297526971969e-01 2.9219093344746767e+00 0.0000000000000000e+00  -6.2098271899628757e-02 2.6901171533957604e+00 0.0000000000000000e+00  2.6831824447350966e-01 3.0871246417159766e+00 0.0000000000000000e+00  1.6974240614405700e-01 2.1835053426562916e+00 0.0000000000000000e+00  2.6715042453371357e-01 3.0940706481955282e+00 0.0000000000000000e+00  2.2964053503217938e-01 2.9713398217055200e+00 0.0000000000000000e+00  2.2365412204631632e-01 2.9537868699731598e+00 0.0000000000000000e+00  1.2968728814039149e-01 2.0740448892634196e+00 0.0000000000000000e+00  1.2807054290758504e-01 3.0419264564236399e+00 0.0000000000000000e+00  1.3037508201030920e-03 3.4586042521612508e+00 0.0000000000000000e+00  3.6459410898863981e-01 3.8506937118739755e+00 0.0000000000000000e+00  3.2486293729287924e-01 3.7562885232314436e+00 0.0000000000000000e+00  -2.3057751415913130e-01 -1.7578375709695953e+00 0.0000000000000000e+00  -2.3565939048560949e-01 -1.7636556546628361e+00 0.0000000000000000e+00  -5.1264009041839219e-02 -1.7044235191886501e+00 0.0000000000000000e+00  -2.6124271303435054e-01 -2.1581581519661204e+00 0.0000000000000000e+00  -4.1819651609234515e-01 -1.7582924150629797e+00 0.0000000000000000e+00  -5.1291036145380908e-01 -2.5791248567887797e+00 0.0000000000000000e+00  -4.1788902667086675e-01 -1.7621728229428042e+00 0.0000000000000000e+00  -3.8747746564059049e-01 -1.6951124505322051e+00 0.0000000000000000e+00  -3.8275206472116952e-01 -1.6857705489097319e+00 0.0000000000000000e+00  -4.8314814156963631e-01 -2.5293519301743626e+00 0.0000000000000000e+00  -3.3110405428935713e-01 -1.7417713150864036e+00 0.0000000000000000e+00  -2.1021490766870526e-01 -1.3800842509756936e+00 0.0000000000000000e+00  -3.1546998627560141e-01 -8.6241533150246352e-01 0.0000000000000000e+00  -2.8447117464628968e-01 -8.0023770179893094e-01 0.0000000000000000e+00  -4.1566703027905200e-01 -6.3264324905266607e+00 0.0000000000000000e+00  -4.1287092580757384e-01 -6.3281089365635017e+00 0.0000000000000000e+00  2.1986445113503830e-01 -6.0806881002538047e+00 0.0000000000000000e+00  -4.1627786087244184e-01 -6.6697962470699137e+00 0.0000000000000000e+00  -1.0574597956073182e+00 -6.3481344953092416e+00 0.0000000000000000e+00  -1.1256653855615033e+00 -6.9419688645389064e+00 0.0000000000000000e+00  -1.0497680554589408e+00 -6.3556229061155278e+00 0.0000000000000000e+00  -9.5462797342806582e-01 -6.1066670714495039e+00 0.0000000000000000e+00  -9.3984434784078441e-01 -6.0711788413443291e+00 0.0000000000000000e+00  -1.0251977771336376e+00 -6.7368189477201410e+00 0.0000000000000000e+00  -7.5037906579088354e-01 -6.2659810595721703e+00 0.0000000000000000e+00  -3.9184449643204916e-01 -6.0126630461518484e+00 0.0000000000000000e+00  -9.6313152982066841e-01 -5.4639569709176605e+00 0.0000000000000000e+00  -8.6598134729258147e-01 -5.2498254631867844e+00 0.0000000000000000e+00  -4.2507235736604854e-01 -9.7667664062537920e+00 0.0000000000000000e+00  -4.8518371405291877e-01 -9.8125298863239792e+00 0.0000000000000000e+00  5.0332475772619023e-01 -9.4132945002703927e+00 0.0000000000000000e+00  -4.7276792948373497e-01 -1.0055094619971282e+01 0.0000000000000000e+00  -1.4753440026949374e+00 -9.8436442623545961e+00 0.0000000000000000e+00  -1.5383308254771861e+00 -1.0162810604400997e+01 0.0000000000000000e+00  -1.4874001697879069e+00 -9.8787039561166594e+00 0.0000000000000000e+00  -1.3473751229425219e+00 -9.4989571648886884e+00 0.0000000000000000e+00  -1.3253980349219823e+00 -9.4454737321208739e+00 0.0000000000000000e+00  -1.3878705093582950e+00 -9.8442421280999834e+00 0.0000000000000000e+00  -1.0199606744454099e+00 -9.7323168969111400e+00 0.0000000000000000e+00  -4.7292808933894148e-01 -9.6132037071721577e+00 0.0000000000000000e+00  -1.4347042773690284e+00 -9.1425844512469698e+00 0.0000000000000000e+00  -1.2902978858773078e+00 -8.8195191691944874e+00 0.0000000000000000e+00  -4.8494245444883516e-01 -1.1827556608455984e+01 0.0000000000000000e+00  -5.1216288527393150e-01 -1.1853319542711356e+01 0.0000000000000000e+00  6.8119614348293489e-01 -1.1363397347297305e+01 0.0000000000000000e+00  -5.7472202578225340e-01 -1.2023926397366354e+01 0.0000000000000000e+00  -1.7254231493372127e+00 -1.1912229754839810e+01 0.0000000000000000e+00  -1.7193713774623349e+00 -1.1848717893083830e+01 0.0000000000000000e+00  -1.7211457302090754e+00 -1.1936241192844291e+01 0.0000000000000000e+00  -1.5547890399563540e+00 -1.1476113328545646e+01 0.0000000000000000e+00  -1.5283244849071707e+00 -1.1411729128337553e+01 0.0000000000000000e+00  -1.5486210825179849e+00 -1.1476294530490621e+01 0.0000000000000000e+00  -1.1571633122745417e+00 -1.1757272106437130e+01 0.0000000000000000e+00  -5.6908336821207184e-01 -1.1831664422338253e+01 0.0000000000000000e+00  -1.6909207014175842e+00 -1.1430940384750947e+01 0.0000000000000000e+00  -1.5202810452531377e+00 -1.1056333086399164e+01 0.0000000000000000e+00  -4.3882352857009876e-01 -1.2060597219595433e+01 0.0000000000000000e+00  -4.6477474813787650e-01 -1.2085811533238013e+01 0.0000000000000000e+00  7.4761370118135551e-01 -1.1581735314624753e+01 0.0000000000000000e+00  -4.9239079423439547e-01 -1.2081549969732828e+01 0.0000000000000000e+00  -1.7047791829399983e+00 -1.2151633535022309e+01 0.0000000000000000e+00  -1.6616531602547790e+00 -1.1745962833686331e+01 0.0000000000000000e+00  -1.6999227199606333e+00 -1.2176142775716473e+01 0.0000000000000000e+00  -1.5324347759934305e+00 -1.1705931425497420e+01 0.0000000000000000e+00  -1.5055963310286571e+00 -1.1639887069951866e+01 0.0000000000000000e+00  -1.4854477626579925e+00 -1.1362994679990942e+01 0.0000000000000000e+00  -1.1255439171514459e+00 -1.1990763297848085e+01 0.0000000000000000e+00  -4.7111927448361407e-01 -1.2180237969268854e+01 0.0000000000000000e+00  -1.7230504877574542e+00 -1.2022089561896419e+01 0.0000000000000000e+00  -1.5490589579678586e+00 -1.1627028251503962e+01 0.0000000000000000e+00  -3.1295737601375867e-01 -1.0415111127720845e+01 0.0000000000000000e+00  -3.3654617288308786e-01 -1.0434928206807511e+01 0.0000000000000000e+00  7.1614856723661013e-01 -9.9931373443673905e+00 0.0000000000000000e+00  -2.9134207427616415e-01 -1.0247669140786915e+01 0.0000000000000000e+00  -1.4165307175616255e+00 -1.0507583388828277e+01 0.0000000000000000e+00  -1.3618333241370699e+00 -9.8573729601396209e+00 0.0000000000000000e+00  -1.4117170530673591e+00 -1.0526973836575424e+01 0.0000000000000000e+00  -1.2702257895056528e+00 -1.0125305161132413e+01 0.0000000000000000e+00  -1.2485794611283132e+00 -1.0070173716663268e+01 0.0000000000000000e+00  -1.2083467217292034e+00 -9.5132873848322639e+00 0.0000000000000000e+00  -9.1216874222384026e-01 -1.0362073542249574e+01 0.0000000000000000e+00  -3.4930563682753768e-01 -1.0665149016494123e+01 0.0000000000000000e+00  -1.4711935765378730e+00 -1.0726696180111869e+01 0.0000000000000000e+00  -1.3241721947836020e+00 -1.0391303950954772e+01 0.0000000000000000e+00  -1.6833611156971842e-01 -7.2917021405275833e+00 0.0000000000000000e+00  -2.1479112162242517e-01 -7.3289047736754611e+00 0.0000000000000000e+00  5.2038895935197382e-01 -7.0130501619178620e+00 0.0000000000000000e+00  -2.1205715479362874e-01 -7.0495700613636316e+00 0.0000000000000000e+00  -9.5169749563651540e-01 -7.3633865875148965e+00 0.0000000000000000e+00  -8.7212417021140232e-01 -6.5254487253732787e+00 0.0000000000000000e+00  -9.6049940183217875e-01 -7.3901665437191841e+00 0.0000000000000000e+00  -8.6104915255454106e-01 -7.1026119764434616e+00 0.0000000000000000e+00  -8.4485759678388406e-01 -7.0618343650495135e+00 0.0000000000000000e+00  -7.6697561182888951e-01 -6.2870903119256356e+00 0.0000000000000000e+00  -6.1349982387288493e-01 -7.2741137754111547e+00 0.0000000000000000e+00  -2.3247000930221171e-01 -7.6590355280270268e+00 0.0000000000000000e+00  -1.0418491274061761e+00 -7.8988312919006081e+00 0.0000000000000000e+00  -9.3886179698056860e-01 -7.6615635930953143e+00 0.0000000000000000e+00  -1.4761917297977826e-02 -3.0201511077010115e+00 0.0000000000000000e+00  -3.3098363056259170e-02 -3.0355641309846466e+00 0.0000000000000000e+00  2.6874621743638960e-01 -2.8978422549032108e+00 0.0000000000000000e+00  -1.5542263777685176e-02 -2.6697403712582060e+00 0.0000000000000000e+00  -3.3969092374132714e-01 -3.0578383707888479e+00 0.0000000000000000e+00  -2.4589016204238967e-01 -2.1646947487349486e+00 0.0000000000000000e+00  -3.4285700428866467e-01 -3.0687064366855270e+00 0.0000000000000000e+00  -3.0459122390762683e-01 -2.9491329747455017e+00 0.0000000000000000e+00  -2.9834308132378518e-01 -2.9322658051321935e+00 0.0000000000000000e+00  -2.0431520969202485e-01 -2.0617178792879356e+00 0.0000000000000000e+00  -1.9984056632201957e-01 -3.0171600999250634e+00 0.0000000000000000e+00  -5.6972602672005643e-02 -3.4208653326941256e+00 0.0000000000000000e+00  -4.4135292808690774e-01 -3.8276463516907246e+00 0.0000000000000000e+00  -4.0140568593365061e-01 -3.7326456375181158e+00 0.0000000000000000e+00  1.7338840170992911e-01 1.9875384850535927e+00 0.0000000000000000e+00  1.7860763616391431e-01 2.0055216489082079e+00 0.0000000000000000e+00  3.5742196888232119e-01 2.0872967366485806e+00 0.0000000000000000e+00  3.9119215400137258e-01 2.3827014107373441e+00 0.0000000000000000e+00  4.0452906046652359e-01 2.4502418514359237e+00 0.0000000000000000e+00  3.6510845859414826e-01 2.1473736161518087e+00 0.0000000000000000e+00  2.7489680085434642e-01 1.6979688815482910e+00 0.0000000000000000e+00  2.7693213000118427e-01 1.6986884453851343e+00 0.0000000000000000e+00  3.3386450193231942e-01 2.0347300241404316e+00 0.0000000000000000e+00  3.6267776248385608e-01 2.3235747651539338e+00 0.0000000000000000e+00  3.7425836494410009e-01 2.4012081853330742e+00 0.0000000000000000e+00  3.3569268099733657e-01 2.0801352962331885e+00 0.0000000000000000e+00  1.3409191151858982e-01 1.4657770905806886e+00 0.0000000000000000e+00  1.4128330062355424e-01 1.4620422949415517e+00 0.0000000000000000e+00  2.6089691498181045e-01 1.2361477199378288e+00 0.0000000000000000e+00  2.3332239891692821e-01 9.3343499173065247e-01 0.0000000000000000e+00  2.3818964403192516e-01 9.8553776547786998e-01 0.0000000000000000e+00  2.7179816729703316e-01 1.3080331134356815e+00 0.0000000000000000e+00  2.0718454506445866e-01 9.2315002089787446e-01 0.0000000000000000e+00  2.4870929925310642e-01 1.2600965497445804e+00 0.0000000000000000e+00  2.3281938718818079e-01 1.1777576812544055e+00 0.0000000000000000e+00  1.9863203283611336e-01 8.4888839432131269e-01 0.0000000000000000e+00  3.5487216416661083e-01 6.4897975092436413e+00 0.0000000000000000e+00  3.6792461791719144e-01 6.5176488687394460e+00 0.0000000000000000e+00  9.5595552173731946e-01 6.5472974933281467e+00 0.0000000000000000e+00  1.0048396998558768e+00 6.8118198420912046e+00 0.0000000000000000e+00  9.8080026526448449e-01 6.7276432526995524e+00 0.0000000000000000e+00  9.5322955334129100e-01 6.5131792616029909e+00 0.0000000000000000e+00  7.8130963210541893e-01 6.1736671518903048e+00 0.0000000000000000e+00  7.7395046680394508e-01 6.1688474107386142e+00 0.0000000000000000e+00  8.8561227634425144e-01 6.5064830071022142e+00 0.0000000000000000e+00  8.7643049027184416e-01 6.3248033207272121e+00 0.0000000000000000e+00  8.6090817934749042e-01 6.3105459825955661e+00 0.0000000000000000e+00  8.9956055116187161e-01 6.5794407272983770e+00 0.0000000000000000e+00  2.7944179430108046e-01 6.0169294389220216e+00 0.0000000000000000e+00  3.3803566008800079e-01 6.0454562357858110e+00 0.0000000000000000e+00  8.6934318649676257e-01 5.7548289681513278e+00 0.0000000000000000e+00  8.6229447348525012e-01 5.4923078709582267e+00 0.0000000000000000e+00  8.7730921881910884e-01 5.5313233977130531e+00 0.0000000000000000e+00  8.8363977644551484e-01 5.8365186683171082e+00 0.0000000000000000e+00  7.5766194604566761e-01 5.2864375342427596e+00 0.0000000000000000e+00  8.0621895355637307e-01 5.6510352552707559e+00 0.0000000000000000e+00  7.7540481049297649e-01 5.5257943121972808e+00 0.0000000000000000e+00  7.5358162236094661e-01 5.2291709873469587e+00 0.0000000000000000e+00  3.8871331033985040e-01 9.9376767223267244e+00 0.0000000000000000e+00  4.8589897436207596e-01 1.0020924579079242e+01 0.0000000000000000e+00  1.3885515049929573e+00 9.9395845179542412e+00 0.0000000000000000e+00  1.4398827354458450e+00 1.0126187341993147e+01 0.0000000000000000e+00  1.4501235844065812e+00 1.0082494813809845e+01 0.0000000000000000e+00  1.3931920741808035e+00 9.9364502840178375e+00 0.0000000000000000e+00  1.1524413028073726e+00 9.6932165854618706e+00 0.0000000000000000e+00  1.1411145681698385e+00 9.6869160550488793e+00 0.0000000000000000e+00  1.2654563791755375e+00 9.6906677076179015e+00 0.0000000000000000e+00  1.2742057978173114e+00 9.6412725573439282e+00 0.0000000000000000e+00  1.2437507838182100e+00 9.5717155378778891e+00 0.0000000000000000e+00  1.2772688674429102e+00 9.7484196331026389e+00 0.0000000000000000e+00  4.1744493293514889e-01 9.6446116784562204e+00 0.00000000000000