<?xml version="1.0"?>
<VTKFile type="UnstructuredGrid"  version="0.1"  >
<UnstructuredGrid>
<Piece  NumberOfPoints="3120" NumberOfCells="11982">
<Points>
<DataArray  type="Float64"  NumberOfComponents="3"  format="ascii">0.175 0 0  0.18445 0 0  0.175 0.00945 0  0.16555 0 0  0.193 0 0  0.175 0.018 0  0.157 0 0  0.175 0 0.006  0.193 0 0.006  0.175 0.018 0.006  0.157 0 0.006  0.175 -0.00945 0  0.175 -0.018 0  0.175 -0.018 0.006  0.1529482566072435 0.0633532422280406 0  0.1704095797717068 0.07058595909974082 0  0.1616789181894752 0.06696960066389071 0  0.1580625597536251 0.07570026224612236 0  0.145049086604272 0.0600812988813191 0  0.1547906164069036 0.08359943224909387 0  0.1783087497746783 0.07385790244646231 0  0.1783087497746783 0.07385790244646231 0.006  0.145049086604272 0.0600812988813191 0.006  0.1547906164069036 0.08359943224909387 0.006  0.1616789181894752 0.06696960066389071 0.006  0.1652952766253253 0.05823893908165905 0  0.1685672199720468 0.05033976907868755 0  0.1685672199720468 0.05033976907868755 0.006  0.1170615276254329 0.1170615276254329 0  0.1304258457898587 0.1304258457898587 0  0.1237436867076458 0.1237436867076458 0  0.117061527625433 0.1304258457898587 0  0.111015764646288 0.111015764646288 0  0.111015764646288 0.1364716087690037 0  0.1364716087690037 0.1364716087690036 0  0.1364716087690037 0.1364716087690036 0.006  0.111015764646288 0.111015764646288 0.006  0.111015764646288 0.1364716087690037 0.006  0.1237436867076458 0.1237436867076458 0.006  0.1304258457898587 0.1170615276254329 0  0.1364716087690037 0.1110157646462879 0  0.1364716087690037 0.1110157646462879 0.006  0.06335324222804062 0.1529482566072435 0  0.07058595909974082 0.1704095797717068 0  0.06696960066389071 0.1616789181894752 0  0.05823893908165905 0.1652952766253253 0  0.06008129888131911 0.145049086604272 0  0.05033976907868755 0.1685672199720468 0  0.07385790244646233 0.1783087497746783 0  0.07385790244646233 0.1783087497746783 0.006  0.06008129888131911 0.145049086604272 0.006  0.05033976907868755 0.1685672199720468 0.006  0.06696960066389071 0.1616789181894752 0.006  0.07570026224612236 0.1580625597536251 0  0.08359943224909387 0.1547906164069036 0  0.08359943224909387 0.1547906164069036 0.006  1.013701387994221e-17 0.16555 0  1.129430510513647e-17 0.18445 0  1.071565949253934e-17 0.175 0  -0.00944999999999999 0.175 0  9.613477373306723e-18 0.157 0  -0.01799999999999999 0.175 0  1.181784161177196e-17 0.193 0  1.181784161177196e-17 0.193 0.006  9.613477373306723e-18 0.157 0.006  -0.01799999999999999 0.175 0.006  1.071565949253934e-17 0.175 0.006  0.00945000000000001 0.175 0  0.01800000000000001 0.175 0  0.01800000000000001 0.175 0.006  -0.06335324222804059 0.1529482566072435 0  -0.0705859590997408 0.1704095797717068 0  -0.0669696006638907 0.1616789181894752 0  -0.07570026224612236 0.1580625597536251 0  -0.06008129888131909 0.145049086604272 0  -0.08359943224909386 0.1547906164069036 0  -0.07385790244646231 0.1783087497746783 0  -0.07385790244646231 0.1783087497746783 0.006  -0.06008129888131909 0.145049086604272 0.006  -0.08359943224909386 0.1547906164069036 0.006  -0.0669696006638907 0.1616789181894752 0.006  -0.05823893908165904 0.1652952766253253 0  -0.05033976907868754 0.1685672199720468 0  -0.05033976907868754 0.1685672199720468 0.006  -0.1170615276254329 0.1170615276254329 0  -0.1304258457898587 0.1304258457898587 0  -0.1237436867076458 0.1237436867076458 0  -0.1304258457898587 0.117061527625433 0  -0.111015764646288 0.111015764646288 0  -0.1364716087690037 0.111015764646288 0  -0.1364716087690036 0.1364716087690037 0  -0.1364716087690036 0.1364716087690037 0.006  -0.111015764646288 0.111015764646288 0.006  -0.1364716087690037 0.111015764646288 0.006  -0.1237436867076458 0.1237436867076458 0.006  -0.1170615276254329 0.1304258457898587 0  -0.1110157646462879 0.1364716087690037 0  -0.1110157646462879 0.1364716087690037 0.006  -0.1529482566072435 0.06335324222804062 0  -0.1704095797717068 0.07058595909974083 0  -0.1616789181894752 0.06696960066389072 0  -0.1652952766253253 0.05823893908165906 0  -0.145049086604272 0.06008129888131911 0  -0.1685672199720468 0.05033976907868756 0  -0.1783087497746783 0.07385790244646234 0  -0.1783087497746783 0.07385790244646234 0.006  -0.145049086604272 0.06008129888131911 0.006  -0.1685672199720468 0.05033976907868756 0.006  -0.1616789181894752 0.06696960066389072 0.006  -0.1580625597536251 0.07570026224612239 0  -0.1547906164069036 0.08359943224909389 0  -0.1547906164069036 0.08359943224909389 0.006  -0.16555 2.027402775988443e-17 0  -0.18445 2.258861021027293e-17 0  -0.175 2.143131898507868e-17 0  -0.175 -0.009449999999999979 0  -0.157 1.922695474661345e-17 0  -0.175 -0.01799999999999998 0  -0.193 2.363568322354391e-17 0  -0.193 2.363568322354391e-17 0.006  -0.157 1.922695474661345e-17 0.006  -0.175 -0.01799999999999998 0.006  -0.175 2.143131898507868e-17 0.006  -0.175 0.009450000000000021 0  -0.175 0.01800000000000002 0  -0.175 0.01800000000000002 0.006  -0.1529482566072435 -0.06335324222804059 0  -0.1704095797717069 -0.07058595909974079 0  -0.1616789181894752 -0.06696960066389068 0  -0.1580625597536251 -0.07570026224612235 0  -0.145049086604272 -0.06008129888131908 0  -0.1547906164069036 -0.08359943224909384 0  -0.1783087497746783 -0.0738579024464623 0  -0.1783087497746783 -0.0738579024464623 0.006  -0.145049086604272 -0.06008129888131908 0.006  -0.1547906164069036 -0.08359943224909384 0.006  -0.1616789181894752 -0.06696960066389068 0.006  -0.1652952766253253 -0.05823893908165902 0  -0.1685672199720468 -0.05033976907868752 0  -0.1685672199720468 -0.05033976907868752 0.006  -0.117061527625433 -0.1170615276254329 0  -0.1304258457898587 -0.1304258457898587 0  -0.1237436867076458 -0.1237436867076458 0  -0.117061527625433 -0.1304258457898587 0  -0.111015764646288 -0.111015764646288 0  -0.111015764646288 -0.1364716087690037 0  -0.1364716087690037 -0.1364716087690036 0  -0.1364716087690037 -0.1364716087690036 0.006  -0.111015764646288 -0.111015764646288 0.006  -0.111015764646288 -0.1364716087690037 0.006  -0.1237436867076458 -0.1237436867076458 0.006  -0.1304258457898587 -0.1170615276254329 0  -0.1364716087690037 -0.1110157646462879 0  -0.1364716087690037 -0.1110157646462879 0.006  -0.0633532422280407 -0.1529482566072435 0  -0.07058595909974091 -0.1704095797717068 0  -0.06696960066389081 -0.1616789181894751 0  -0.05823893908165915 -0.1652952766253252 0  -0.06008129888131918 -0.145049086604272 0  -0.05033976907868765 -0.1685672199720468 0  -0.07385790244646243 -0.1783087497746783 0  -0.07385790244646243 -0.1783087497746783 0.006  -0.06008129888131918 -0.145049086604272 0.006  -0.05033976907868765 -0.1685672199720468 0.006  -0.06696960066389081 -0.1616789181894751 0.006  -0.07570026224612246 -0.158062559753625 0  -0.08359943224909397 -0.1547906164069035 0  -0.08359943224909397 -0.1547906164069035 0.006  -3.041104163982664e-17 -0.16555 0  -3.388291531540939e-17 -0.18445 0  -3.214697847761802e-17 -0.175 0  0.009449999999999967 -0.175 0  -2.884043211992017e-17 -0.157 0  0.01799999999999997 -0.175 0  -3.545352483531587e-17 -0.193 0  -3.545352483531587e-17 -0.193 0.006  -2.884043211992017e-17 -0.157 0.006  0.01799999999999997 -0.175 0.006  -3.214697847761802e-17 -0.175 0.006  -0.009450000000000033 -0.175 0  -0.01800000000000003 -0.175 0  -0.01800000000000003 -0.175 0.006  0.06335324222804065 -0.1529482566072435 0  0.07058595909974086 -0.1704095797717068 0  0.06696960066389075 -0.1616789181894752 0  0.07570026224612242 -0.1580625597536251 0  0.06008129888131913 -0.145049086604272 0  0.08359943224909391 -0.1547906164069035 0  0.07385790244646236 -0.1783087497746783 0  0.07385790244646236 -0.1783087497746783 0.006  0.06008129888131913 -0.145049086604272 0.006  0.08359943224909391 -0.1547906164069035 0.006  0.06696960066389075 -0.1616789181894752 0.006  0.05823893908165909 -0.1652952766253253 0  0.05033976907868759 -0.1685672199720468 0  0.05033976907868759 -0.1685672199720468 0.006  0.1170615276254329 -0.117061527625433 0  0.1304258457898587 -0.1304258457898587 0  0.1237436867076458 -0.1237436867076458 0  0.1304258457898587 -0.117061527625433 0  0.1110157646462879 -0.111015764646288 0  0.1364716087690036 -0.111015764646288 0  0.1364716087690036 -0.1364716087690037 0  0.1364716087690036 -0.1364716087690037 0.006  0.1110157646462879 -0.111015764646288 0.006  0.1364716087690036 -0.111015764646288 0.006  0.1237436867076458 -0.1237436867076458 0.006  0.1170615276254329 -0.1304258457898587 0  0.1110157646462879 -0.1364716087690037 0  0.1110157646462879 -0.1364716087690037 0.006  0.1529482566072435 -0.0633532422280407 0  0.1704095797717068 -0.07058595909974093 0  0.1616789181894751 -0.06696960066389081 0  0.1652952766253252 -0.05823893908165915 0  0.145049086604272 -0.06008129888131919 0  0.1685672199720468 -0.05033976907868765 0  0.1783087497746783 -0.07385790244646244 0  0.1783087497746783 -0.07385790244646244 0.006  0.145049086604272 -0.06008129888131919 0.006  0.1685672199720468 -0.05033976907868765 0.006  0.1616789181894751 -0.06696960066389081 0.006  0.158062559753625 -0.07570026224612246 0  0.1547906164069035 -0.08359943224909397 0  0.1547906164069035 -0.08359943224909397 0.006  0.1816821590571039 0.006682159107321884 0  0.1683178408904039 0.006682159054829612 0  0.1905884572626798 0.009000000009422473 0  0.1839999999697972 0.01558845728555746 0  0.1659999999713115 0.01558845725155659 0  0.1594115427217315 0.008999999982422135 0  0.1659999999999918 0 0.006  0.1839999999999864 0 0.006  0.1905884572626798 0.009000000009422473 0.006  0.1839999999697972 0.01558845728555746 0.006  0.1659999999713115 0.01558845725155659 0.006  0.1594115427217315 0.008999999982422135 0.006  0.1816821590822129 -0.006682159082212883 0  0.1683178409177871 -0.006682159082212875 0  0.1594115427217313 -0.008999999982421729 0  0.1659999999713265 -0.01558845725156525 0  0.1839999999697972 -0.01558845728555747 0  0.1905884572626846 -0.009000000009414219 0  0.1839999999697972 -0.01558845728555747 0.006  0.1905884572626846 -0.00
[...]
<PointData  Vectors="f_683"> 
<DataArray  type="Float64"  Name="f_683"  NumberOfComponents="3" format="ascii">-7.0881552524404368e-01 1.1719195958260189e+01 0.0000000000000000e+00  5.1464587920065896e-01 1.2228075405183324e+01 0.0000000000000000e+00  4.7885462758003938e-01 1.2189221550529643e+01 0.0000000000000000e+00  4.4044658706393303e-01 1.2168884261278773e+01 0.0000000000000000e+00  1.7563802275584155e+00 1.2317294881388447e+01 0.0000000000000000e+00  1.7510667728192897e+00 1.1926508532610836e+01 0.0000000000000000e+00  1.7429219602811739e+00 1.2274314506470853e+01 0.0000000000000000e+00  1.1791466901407646e+00 1.2130947162140506e+01 0.0000000000000000e+00  1.5872026627397076e+00 1.1843576577015806e+01 0.0000000000000000e+00  1.5684186442870318e+00 1.1524018736887690e+01 0.0000000000000000e+00  1.5605147293584325e+00 1.1777093159751010e+01 0.0000000000000000e+00  5.5360650611218498e-01 1.2332692347114952e+01 0.0000000000000000e+00  1.7534174944392378e+00 1.2124467738060211e+01 0.0000000000000000e+00  1.5752323866900309e+00 1.1740045396228016e+01 0.0000000000000000e+00  4.1150341184667183e-01 1.0649132935361122e+01 0.0000000000000000e+00  4.7604691604025534e-01 1.0700883513835812e+01 0.0000000000000000e+00  -5.9596457935742009e-01 1.0257407629994093e+01 0.0000000000000000e+00  4.3605970231345464e-01 1.0515518318997149e+01 0.0000000000000000e+00  1.5507400031733691e+00 1.0737891910306049e+01 0.0000000000000000e+00  1.5205070435591472e+00 1.0099577011067629e+01 0.0000000000000000e+00  1.5632890518312588e+00 1.0776127171689978e+01 0.0000000000000000e+00  1.4142740932591693e+00 1.0360719844018735e+01 0.0000000000000000e+00  1.3902063977829751e+00 1.0302058345601445e+01 0.0000000000000000e+00  1.3597622232564448e+00 9.7443917682554755e+00 0.0000000000000000e+00  1.0566687903402263e+00 1.0614155284738771e+01 0.0000000000000000e+00  4.8449393891830200e-01 1.0928483772607398e+01 0.0000000000000000e+00  1.6067565511890851e+00 1.0959017824991957e+01 0.0000000000000000e+00  1.4524168801814796e+00 1.0612455723291458e+01 0.0000000000000000e+00  3.2965636701079637e-01 7.4931429220948997e+00 0.0000000000000000e+00  3.7729877438435672e-01 7.5302415434351300e+00 0.0000000000000000e+00  -3.7990027884969957e-01 7.2209328872080496e+00 0.0000000000000000e+00  3.5753476533612172e-01 7.2424150180660130e+00 0.0000000000000000e+00  1.1353458974804558e+00 7.5548812708079875e+00 0.0000000000000000e+00  1.0690936944624820e+00 6.7227017301406500e+00 0.0000000000000000e+00  1.1445204711244479e+00 7.5820653513873246e+00 0.0000000000000000e+00  1.0386450185335876e+00 7.2908010142086264e+00 0.0000000000000000e+00  1.0214108675638849e+00 7.2493934926628070e+00 0.0000000000000000e+00  9.5896331677655666e-01 6.4726199793882246e+00 0.0000000000000000e+00  7.8678404747757102e-01 7.4690134495940281e+00 0.0000000000000000e+00  3.7678745271781899e-01 7.8487562945841356e+00 0.0000000000000000e+00  1.2200199627403976e+00 8.0939930522365486e+00 0.0000000000000000e+00  1.1056885482442707e+00 7.8516353837356165e+00 0.0000000000000000e+00  2.2563002487663186e-01 3.2218872286699325e+00 0.0000000000000000e+00  2.4653313758082479e-01 3.2380333461600648e+00 0.0000000000000000e+00  -8.1988130582047694e-02 3.1097172801694546e+00 0.0000000000000000e+00  2.3953410675194783e-01 2.8754768712192367e+00 0.0000000000000000e+00  5.7121668795607083e-01 3.2412184755236999e+00 0.0000000000000000e+00  4.7790063947505496e-01 2.3357761491663904e+00 0.0000000000000000e+00  5.7552459202345618e-01 3.2535176672417299e+00 0.0000000000000000e+00  5.2719172549385862e-01 3.1275949456723389e+00 0.0000000000000000e+00  5.1931742967993544e-01 3.1092833600942886e+00 0.0000000000000000e+00  4.2848251938679138e-01 2.2286080501805476e+00 0.0000000000000000e+00  4.2122290065603618e-01 3.2076566668818089e+00 0.0000000000000000e+00  2.7984216386478294e-01 3.6342932735444182e+00 0.0000000000000000e+00  6.6058464033622000e-01 4.0047734000685127e+00 0.0000000000000000e+00  6.1097520214282353e-01 3.9083135598464307e+00 0.0000000000000000e+00  8.1394362992879485e-02 -1.5673129876303997e+00 0.0000000000000000e+00  7.8638087015035815e-02 -1.5683123389018798e+00 0.0000000000000000e+00  2.2845098166520003e-01 -1.4956720118270066e+00 0.0000000000000000e+00  4.6211460483531100e-02 -1.9727472729349433e+00 0.0000000000000000e+00  -7.7591451554045343e-02 -1.5860910987429062e+00 0.0000000000000000e+00  -1.7302895755543024e-01 -2.4119114746479919e+00 0.0000000000000000e+00  -7.6878643464618868e-02 -1.5886590829394824e+00 0.0000000000000000e+00  -5.9232107388836309e-02 -1.5279561680602556e+00 0.0000000000000000e+00  -5.6284907084250511e-02 -1.5197298223990605e+00 0.0000000000000000e+00  -1.5453422011753101e-01 -2.3676641301818870e+00 0.0000000000000000e+00  -5.5430311327216569e-03 -1.5611648536220015e+00 0.0000000000000000e+00  1.0342241216914626e-01 -1.1827729643265503e+00 0.0000000000000000e+00  1.7334364772683103e-02 -6.9253089723630579e-01 0.0000000000000000e+00  3.6937539109631150e-02 -6.3485857404043067e-01 0.0000000000000000e+00  -5.4180417150005142e-02 -6.1189267854229268e+00 0.0000000000000000e+00  -9.1539513934553160e-02 -6.1493926352027692e+00 0.0000000000000000e+00  5.1266065229290891e-01 -5.8850703601784122e+00 0.0000000000000000e+00  -1.4265473664458145e-01 -6.5343269718291905e+00 0.0000000000000000e+00  -6.9903782216362997e-01 -6.1820301314063881e+00 0.0000000000000000e+00  -7.8680815000156912e-01 -6.8097514127299510e+00 0.0000000000000000e+00  -7.0557234433001770e-01 -6.2031799882075740e+00 0.0000000000000000e+00  -6.2519141293188707e-01 -5.9652425097755426e+00 0.0000000000000000e+00  -6.1246224596444387e-01 -5.9322587154867206e+00 0.0000000000000000e+00  -7.0374117008546222e-01 -6.6209202587229674e+00 0.0000000000000000e+00  -4.2034721186925034e-01 -6.1054660792298581e+00 0.0000000000000000e+00  -5.1581733748200125e-02 -5.8107893677991171e+00 0.0000000000000000e+00  -6.2366628182429173e-01 -5.3077373873216347e+00 0.0000000000000000e+00  -5.3578697558904620e-01 -5.1000778323529961e+00 0.0000000000000000e+00  -1.8937117006668108e-01 -9.8014168534758355e+00 0.0000000000000000e+00  -2.4919444919873965e-01 -9.8511384762842660e+00 0.0000000000000000e+00  7.1550202622051828e-01 -9.4345400172735587e+00 0.0000000000000000e+00  -2.5872984420945194e-01 -1.0120529624836859e+01 0.0000000000000000e+00  -1.2149414242575478e+00 -9.8887479424401938e+00 0.0000000000000000e+00  -1.2877509796045754e+00 -1.0229902559579079e+01 0.0000000000000000e+00  -1.2258390508003452e+00 -9.9237787050645689e+00 0.0000000000000000e+00  -1.0937729617816876e+00 -9.5385192758775563e+00 0.0000000000000000e+00  -1.0725030194326255e+00 -9.4844129021250545e+00 0.0000000000000000e+00  -1.1508125785865686e+00 -9.9095727070543500e+00 0.0000000000000000e+00  -7.7098239738479690e-01 -9.7718219063603087e+00 0.0000000000000000e+00  -2.5786357892972678e-01 -9.6480672258571492e+00 0.0000000000000000e+00  -1.1536267984360551e+00 -9.1407367748092661e+00 0.0000000000000000e+00  -1.0142568937166925e+00 -8.8239925038501017e+00 0.0000000000000000e+00  -3.2149774685568255e-01 -1.2006074851683435e+01 0.0000000000000000e+00  -3.5075459951448668e-01 -1.2032345522019583e+01 0.0000000000000000e+00  8.2477798840565275e-01 -1.1529175775085513e+01 0.0000000000000000e+00  -3.4864236632938000e-01 -1.2165780492917460e+01 0.0000000000000000e+00  -1.5433802325162109e+00 -1.2089714268151290e+01 0.0000000000000000e+00  -1.5603999810084304e+00 -1.2048500801409562e+01 0.0000000000000000e+00  -1.5394391372316250e+00 -1.2115444180711403e+01 0.0000000000000000e+00  -1.3746767874608015e+00 -1.1640865850316949e+01 0.0000000000000000e+00  -1.3487981093047956e+00 -1.1573794548019260e+01 0.0000000000000000e+00  -1.3909541793714504e+00 -1.1651502029017999e+01 0.0000000000000000e+00  -9.8438767622325263e-01 -1.1931115088387656e+01 0.0000000000000000e+00  -3.7720386061404543e-01 -1.1984084136602419e+01 0.0000000000000000e+00  -1.4988963471946788e+00 -1.1587796427150744e+01 0.0000000000000000e+00  -1.3267537527947444e+00 -1.1201220603380754e+01 0.0000000000000000e+00  -2.9137286643694182e-01 -1.2192570384557232e+01 0.0000000000000000e+00  -3.1941043919836898e-01 -1.2217286305488969e+01 0.0000000000000000e+00  8.8851637788321713e-01 -1.1703365582959133e+01 0.0000000000000000e+00  -3.1327861313022426e-01 -1.2201583923263165e+01 0.0000000000000000e+00  -1.5552488763191719e+00 -1.2296807583185990e+01 0.0000000000000000e+00  -1.5392504631407109e+00 -1.1923279444383372e+01 0.0000000000000000e+00  -1.5508471466005593e+00 -1.2319742791990773e+01 0.0000000000000000e+00  -1.3876766920681745e+00 -1.1848603234233517e+01 0.0000000000000000e+00  -1.3613863904300547e+00 -1.1783875772511927e+01 0.0000000000000000e+00  -1.3692735289231486e+00 -1.1525506229432988e+01 0.0000000000000000e+00  -9.7774355413915193e-01 -1.2129071076801470e+01 0.0000000000000000e+00  -3.1963665573605676e-01 -1.2309149417777688e+01 0.0000000000000000e+00  -1.5641900043322177e+00 -1.2160499483271147e+01 0.0000000000000000e+00  -1.3943450653299443e+00 -1.1764391448090503e+01 0.0000000000000000e+00  -3.0823022820287937e-01 -1.0727281783088090e+01 0.0000000000000000e+00  -3.0344323845843030e-01 -1.0728920703417709e+01 0.0000000000000000e+00  7.4653742534904644e-01 -1.0281906617220374e+01 0.0000000000000000e+00  -2.6465877697181611e-01 -1.0541760028873146e+01 0.0000000000000000e+00  -1.3844638209615545e+00 -1.0796065504653287e+01 0.0000000000000000e+00  -1.3249373625678735e+00 -1.0118649323987043e+01 0.0000000000000000e+00  -1.3712617864419960e+00 -1.0806977568847667e+01 0.0000000000000000e+00  -1.2239832729335518e+00 -1.0384609689102897e+01 0.0000000000000000e+00  -1.2008338295814314e+00 -1.0325413888903347e+01 0.0000000000000000e+00  -1.1657987124031151e+00 -9.7568548303434426e+00 0.0000000000000000e+00  -8.7313814604907891e-01 -1.0641431404385733e+01 0.0000000000000000e+00  -3.1169120008823775e-01 -1.0960538423651853e+01 0.0000000000000000e+00  -1.4146745103033127e+00 -1.0988954941919188e+01 0.0000000000000000e+00  -1.2631846268770783e+00 -1.0637005320941615e+01 0.0000000000000000e+00  -1.1775993359468974e-01 -7.4165113257887905e+00 0.0000000000000000e+00  -1.6218339642086255e-01 -7.4509915422611446e+00 0.0000000000000000e+00  5.7493488639154766e-01 -7.1358463860547348e+00 0.0000000000000000e+00  -1.2528208495142390e-01 -7.1451579842083817e+00 0.0000000000000000e+00  -9.0618175242478927e-01 -7.4906186443345959e+00 0.0000000000000000e+00  -8.4221570379485011e-01 -6.6560582184013803e+00 0.0000000000000000e+00  -9.1464689316254766e-01 -7.5160307304495761e+00 0.0000000000000000e+00  -8.1518377073799175e-01 -7.2285958264029144e+00 0.0000000000000000e+00  -7.9950406701971122e-01 -7.1889863443602762e+00 0.0000000000000000e+00  -7.3339734760521669e-01 -6.4063120107456886e+00 0.0000000000000000e+00  -5.6546214256250504e-01 -7.3987684988768692e+00 0.0000000000000000e+00  -1.8022956109000660e-01 -7.7900751325592985e+00 0.0000000000000000e+00  -9.9291970517195260e-01 -8.0413321080098594e+00 0.0000000000000000e+00  -8.8995068553541956e-01 -7.8040943371556057e+00 0.0000000000000000e+00  -1.2481530321847312e-02 -3.1274336322119982e+00 0.0000000000000000e+00  -1.8887721529953536e-02 -3.1318895662466075e+00 0.0000000000000000e+00  2.8910745313992953e-01 -2.9977739246120825e+00 0.0000000000000000e+00  -1.0438772505201541e-02 -2.7691169875962309e+00 0.0000000000000000e+00  -3.3436742975476841e-01 -3.1539712110182254e+00 0.0000000000000000e+00  -2.3919649371835017e-01 -2.2471227222944443e+00 0.0000000000000000e+00  -3.3321271805047076e-01 -3.1603011939152150e+00 0.0000000000000000e+00  -2.9253946643467232e-01 -3.0394906774517572e+00 0.0000000000000000e+00  -2.8590177584008092e-01 -3.0223673232284685e+00 0.0000000000000000e+00  -1.9649471152044659e-01 -2.1436709668425653e+00 0.0000000000000000e+00  -1.8737794718939346e-01 -3.1103035842560751e+00 0.0000000000000000e+00  -5.7437500318391420e-02 -3.5340236201708501e+00 0.0000000000000000e+00  -4.2193006843946779e-01 -3.9189569894344549e+00 0.0000000000000000e+00  -3.8006634925106875e-01 -3.8259866142527570e+00 0.0000000000000000e+00  1.3261754306046167e-01 1.6443717633108654e+00 0.0000000000000000e+00  1.3689661477944173e-01 1.6506083018660496e+00 0.0000000000000000e+00  -3.2162127493608784e-02 1.5843181938877477e+00 0.0000000000000000e+00  1.6578649234248460e-01 2.0483320051225737e+00 0.0000000000000000e+00  3.0855221549244904e-01 1.6556091978555543e+00 0.0000000000000000e+00  3.9796023854592893e-01 2.4688858188075540e+00 0.0000000000000000e+00  3.0795002766927665e-01 1.6594893232024837e+00 0.0000000000000000e+00  2.8345525313603442e-01 1.5948365758302747e+00 0.0000000000000000e+00  2.7960182594799543e-01 1.5855563005740307e+00 0.0000000000000000e+00  3.7291165974307511e-01 2.4221061875815768e+00 0.0000000000000000e+00  2.2802275105223216e-01 1.6355890025813238e+00 0.0000000000000000e+00  1.1389432811944111e-01 1.2684703071541290e+00 0.0000000000000000e+00  2.1419529068484094e-01 7.6664096014250127e-01 0.0000000000000000e+00  1.8839225101184096e-01 7.0612016959631851e-01 0.0000000000000000e+00  2.5936281520309556e-01 6.1359865053856320e+00 0.0000000000000000e+00  2.7404287342039901e-01 6.1506010890527936e+00 0.0000000000000000e+00  -3.4732677485475349e-01 5.8950879859537881e+00 0.0000000000000000e+00  2.7720230508529364e-01 6.4957271676667370e+00 0.0000000000000000e+00  9.1008088085397554e-01 6.1885832070146041e+00 0.0000000000000000e+00  9.9307615675699312e-01 6.8083194580408826e+00 0.0000000000000000e+00  9.0725297349464140e-01 6.2000703422695302e+00 0.0000000000000000e+00  8.2231121081689285e-01 5.9640537802850302e+00 0.0000000000000000e+00  8.0946162596689375e-01 5.9319173393846674e+00 0.0000000000000000e+00  9.0200489562436348e-01 6.6138837826289398e+00 0.0000000000000000e+00  6.1259309739967116e-01 6.1053250754932291e+00 0.0000000000000000e+00  2.5177163719048978e-01 5.8305676197663825e+00 0.0000000000000000e+00  8.2545994943138490e-01 5.3132233104747861e+00 0.0000000000000000e+00  7.3677678496282495e-01 5.1090153798368512e+00 0.0000000000000000e+00  3.5372495884951366e-01 9.7504017778714509e+00 0.0000000000000000e+00  4.1608014629060602e-01 9.7996695886450880e+00 0.0000000000000000e+00  -5.6818779302053701e-01 9.3904177026198834e+00 0.0000000000000000e+00  4.5827249342668125e-01 1.0083785656251893e+01 0.0000000000000000e+00  1.3993794439173417e+00 9.8341791087606527e+00 0.0000000000000000e+00  1.4595562935023090e+00 1.0150368127114138e+01 0.0000000000000000e+00  1.4112561161317145e+00 9.8701123474803882e+00 0.0000000000000000e+00  1.2750236927771665e+00 9.4885857968913374e+00 0.0000000000000000e+00  1.2530824589291767e+00 9.4342260063945709e+00 0.0000000000000000e+00  1.3171070369248357e+00 9.8439284792793327e+00 0.0000000000000000e+00  9.4711319943585526e-01 9.7206220508193191e+00 0.0000000000000000e+00  3.9633140001514150e-01 9.5888592535070387e+00 0.0000000000000000e+00  1.3499633840768075e+00 9.1137245136973970e+00 0.0000000000000000e+00  1.2084815869303873e+00 8.7888848446706085e+00 0.0000000000000000e+00  4.1737394975732839e-01 1.1853162542543856e+01 0.0000000000000000e+00  4.9101565785889256e-01 1.1912006198155179e+01 0.0000000000000000e+00  -7.0353099922942264e-01 1.1414696847483281e+01 0.0000000000000000e+00  5.3203539365013075e-01 1.2066795758711958e+01 0.0000000000000000e+00  1.6890952252892923e+00 1.1957560299459649e+01 0.0000000000000000e+00  1.7164519698766747e+00 1.1926339323016805e+01 0.0000000000000000e+00  1.7030468823975633e+00 1.2000139674219135e+01 0.0000000000000000e+00  1.5385298876004418e+00 1.1538287987947410e+01 0.0000000000000000e+00  1.5118420949277822e+00 1.1472963171479796e+01 0.0000000000000000e+00  1.5435679354920468e+00 1.1552346207609588e+01 0.0000000000000000e+00  1.1389608252543919e+00 1.1818238295588303e+01 0.0000000000000000e+00  4.8121751974322158e-01 1.1846260146418924e+01 0.0000000000000000e+00  1.6758507976718564e+00 1.1501393569941481e+01 0.0000000000000000e+00  1.5046208742723697e+00 1.1110803241457635e+01 0.0000000000000000e+00  5.9925826031114482e-01 1.2286074184242432e+01 0.0000000000000000e+00  6.2121330824561427e-01 1.2316685825023503e+01 0.0000000000000000e+00  1.7325064444594536e+00 1.2106375580493706e+01 0.0000000000000000e+00  1.7285491377280244e+00 1.1957418731694494e+01 0.0000000000000000e+00  1.7611253631371071e+00 1.2016332041341318e+01 0.0000000000000000e+00  1.7231912984593591e+00 1.2053210725063662e+01 0.0000000000000000e+00  1.4547400144620743e+00 1.2143228559026666e+01 0.0000000000000000e+00  1.4688495326645150e+00 1.2151460770189953e+01 0.0000000000000000e+00  1.5869644212370204e+00 1.1739903415351282e+01 0.0000000000000000e+00  1.5465739918274330e+00 1.1520965823549291e+01 0.0000000000000000e+00  1.5570108256761597e+00 1.1526189855774643e+01 0.0000000000000000e+00  1.5436454168280569e+00 1.1595458683806152e+01 0.0000000000000000e+00  5.6247235040921217e-01 1.2320175245045689e+01 0.0000000000000000e+00  6.2446765118706671e-01 1.2387915934448156e+01 0.0000000000000000e+00  1.7338931528305896e+00 1.2172850984191058e+01 0.0000000000000000e+00  1.7807845851521604e+00 1.2216636880287819e+01 0.0000000000000000e+00  1.7593208166498773e+00 1.2158394096122134e+01 0.0000000000000000e+00  1.7423051735219390e+00 1.2209604149497217e+01 0.0000000000000000e+00  1.5653452049259589e+00 1.1708694707476839e+01 0.0000000000000000e+00  1.5958123686193011e+00 1.1842182262879366e+01 0.0000000000000000e+00  1.5543271312918379e+00 1.1714056222739661e+01 0.0000000000000000e+00  1.5757318032927505e+00 1.1730458548882233e+01 0.0000000000000000e+00  5.4413391434805636e-01 1.0650135033433449e+01 0.0000000000000000e+00  5.6282961295441380e-01 1.0671524261346827e+01 0.0000000000000000e+00  1.5129473107659943e+00 1.0364737285288584e+01 0.0000000000000000e+00  1.5331224894380668e+00 1.0213230136815364e+01 0.0000000000000000e+00  1.5078226895137401e+00 1.0184877765619174e+01 0.0000000000000000e+00  1.5251255834387818e+00 1.0437842471010804e+01 0.0000000000000000e+00  1.3107230739640319e+00 1.0631649447174116e+01 0.0000000000000000e+00  1.2983948097990619e+00 1.0623982237685716e+01 0.0000000000000000e+00  1.3476391772280372e+00 9.8021434144525674e+00 0.0000000000000000e+00  1.3971990702628798e+00 1.0117561163041898e+01 0.0000000000000000e+00  1.3552724708861859e+00 9.9652836691687003e+00 0.0000000000000000e+00  1.3528286839163801e+00 9.7767111360992338e+00 0.0000000000000000e+00  4.7463731574046802e-01 1.0860236159389515e+01 0.0000000000000000e+00  5.8036414361582400e-01 1.0948267781604375e+01 0.0000000000000000e+00  1.5628227905179350e+00 1.0827897568813624e+01 0.0000000000000000e+00  1.6150301083199596e+00 1.0984196816556443e+01 0.0000000000000000e+00  1.6270072639266859e+00 1.0945046750493894e+01 0.0000000000000000e+00  1.5687835390843130e+00 1.0835606569479157e+01 0.0000000000000000e+00  1.4251178867809737e+00 1.0514642742530663e+01 0.0000000000000000e+00  1.4387026359891517e+00 1.0511280282686954e+01 0.0000000000000000e+00  1.4045105194964480e+00 1.0423958035908241e+01 0.0000000000000000e+00  1.4369436087090475e+00 1.0565771972899581e+01 0.0000000000000000e+00  3.5898810786464963e-01 7.3475954444879159e+00 0.0000000000000000e+00  4.3056682867488177e-01 7.3873897578463064e+00 0.0000000000000000e+00  1.0859697264818331e+00 7.0879338254964193e+00 0.0000000000000000e+00  1.0856537394531458e+00 6.8449447977397160e+00 0.0000000000000000e+00  1.1020046273374415e+00 6.8790155848414933e+00 0.0000000000000000e+00  1.1005680633239818e+00 7.1702086662736919e+00 0.0000000000000000e+00  9.6576243987085020e-01 7.4807936451421195e+00 0.0000000000000000e+00  9.5702515591544857e-01 7.4752026362533863e+00 0.0000000000000000e+00  9.5940473806586413e-01 6.5818323310557538e+00 0.0000000000000000e+00  1.0085631656231020e+00 6.9453895468283671e+00 0.0000000000000000e+00  9.7439448088523672e-01 6.8099530237605288e+00 0.0000000000000000e+00  9.5697360146845356e-01 6.5311088983749706e+00 0.0000000000000000e+00  4.1773414441952572e-01 7.7746906927749420e+00 0.0000000000000000e+00  4.