<?xml version="1.0"?>
<VTKFile type="UnstructuredGrid"  version="0.1"  >
<UnstructuredGrid>
<Piece  NumberOfPoints="3120" NumberOfCells="11982">
<Points>
<DataArray  type="Float64"  NumberOfComponents="3"  format="ascii">0.175 0 0  0.18445 0 0  0.175 0.00945 0  0.16555 0 0  0.193 0 0  0.175 0.018 0  0.157 0 0  0.175 0 0.006  0.193 0 0.006  0.175 0.018 0.006  0.157 0 0.006  0.175 -0.00945 0  0.175 -0.018 0  0.175 -0.018 0.006  0.1529482566072435 0.0633532422280406 0  0.1704095797717068 0.07058595909974082 0  0.1616789181894752 0.06696960066389071 0  0.1580625597536251 0.07570026224612236 0  0.145049086604272 0.0600812988813191 0  0.1547906164069036 0.08359943224909387 0  0.1783087497746783 0.07385790244646231 0  0.1783087497746783 0.07385790244646231 0.006  0.145049086604272 0.0600812988813191 0.006  0.1547906164069036 0.08359943224909387 0.006  0.1616789181894752 0.06696960066389071 0.006  0.1652952766253253 0.05823893908165905 0  0.1685672199720468 0.05033976907868755 0  0.1685672199720468 0.05033976907868755 0.006  0.1170615276254329 0.1170615276254329 0  0.1304258457898587 0.1304258457898587 0  0.1237436867076458 0.1237436867076458 0  0.117061527625433 0.1304258457898587 0  0.111015764646288 0.111015764646288 0  0.111015764646288 0.1364716087690037 0  0.1364716087690037 0.1364716087690036 0  0.1364716087690037 0.1364716087690036 0.006  0.111015764646288 0.111015764646288 0.006  0.111015764646288 0.1364716087690037 0.006  0.1237436867076458 0.1237436867076458 0.006  0.1304258457898587 0.1170615276254329 0  0.1364716087690037 0.1110157646462879 0  0.1364716087690037 0.1110157646462879 0.006  0.06335324222804062 0.1529482566072435 0  0.07058595909974082 0.1704095797717068 0  0.06696960066389071 0.1616789181894752 0  0.05823893908165905 0.1652952766253253 0  0.06008129888131911 0.145049086604272 0  0.05033976907868755 0.1685672199720468 0  0.07385790244646233 0.1783087497746783 0  0.07385790244646233 0.1783087497746783 0.006  0.06008129888131911 0.145049086604272 0.006  0.05033976907868755 0.1685672199720468 0.006  0.06696960066389071 0.1616789181894752 0.006  0.07570026224612236 0.1580625597536251 0  0.08359943224909387 0.1547906164069036 0  0.08359943224909387 0.1547906164069036 0.006  1.013701387994221e-17 0.16555 0  1.129430510513647e-17 0.18445 0  1.071565949253934e-17 0.175 0  -0.00944999999999999 0.175 0  9.613477373306723e-18 0.157 0  -0.01799999999999999 0.175 0  1.181784161177196e-17 0.193 0  1.181784161177196e-17 0.193 0.006  9.613477373306723e-18 0.157 0.006  -0.01799999999999999 0.175 0.006  1.071565949253934e-17 0.175 0.006  0.00945000000000001 0.175 0  0.01800000000000001 0.175 0  0.01800000000000001 0.175 0.006  -0.06335324222804059 0.1529482566072435 0  -0.0705859590997408 0.1704095797717068 0  -0.0669696006638907 0.1616789181894752 0  -0.07570026224612236 0.1580625597536251 0  -0.06008129888131909 0.145049086604272 0  -0.08359943224909386 0.1547906164069036 0  -0.07385790244646231 0.1783087497746783 0  -0.07385790244646231 0.1783087497746783 0.006  -0.06008129888131909 0.145049086604272 0.006  -0.08359943224909386 0.1547906164069036 0.006  -0.0669696006638907 0.1616789181894752 0.006  -0.05823893908165904 0.1652952766253253 0  -0.05033976907868754 0.1685672199720468 0  -0.05033976907868754 0.1685672199720468 0.006  -0.1170615276254329 0.1170615276254329 0  -0.1304258457898587 0.1304258457898587 0  -0.1237436867076458 0.1237436867076458 0  -0.1304258457898587 0.117061527625433 0  -0.111015764646288 0.111015764646288 0  -0.1364716087690037 0.111015764646288 0  -0.1364716087690036 0.1364716087690037 0  -0.1364716087690036 0.1364716087690037 0.006  -0.111015764646288 0.111015764646288 0.006  -0.1364716087690037 0.111015764646288 0.006  -0.1237436867076458 0.1237436867076458 0.006  -0.1170615276254329 0.1304258457898587 0  -0.1110157646462879 0.1364716087690037 0  -0.1110157646462879 0.1364716087690037 0.006  -0.1529482566072435 0.06335324222804062 0  -0.1704095797717068 0.07058595909974083 0  -0.1616789181894752 0.06696960066389072 0  -0.1652952766253253 0.05823893908165906 0  -0.145049086604272 0.06008129888131911 0  -0.1685672199720468 0.05033976907868756 0  -0.1783087497746783 0.07385790244646234 0  -0.1783087497746783 0.07385790244646234 0.006  -0.145049086604272 0.06008129888131911 0.006  -0.1685672199720468 0.05033976907868756 0.006  -0.1616789181894752 0.06696960066389072 0.006  -0.1580625597536251 0.07570026224612239 0  -0.1547906164069036 0.08359943224909389 0  -0.1547906164069036 0.08359943224909389 0.006  -0.16555 2.027402775988443e-17 0  -0.18445 2.258861021027293e-17 0  -0.175 2.143131898507868e-17 0  -0.175 -0.009449999999999979 0  -0.157 1.922695474661345e-17 0  -0.175 -0.01799999999999998 0  -0.193 2.363568322354391e-17 0  -0.193 2.363568322354391e-17 0.006  -0.157 1.922695474661345e-17 0.006  -0.175 -0.01799999999999998 0.006  -0.175 2.143131898507868e-17 0.006  -0.175 0.009450000000000021 0  -0.175 0.01800000000000002 0  -0.175 0.01800000000000002 0.006  -0.1529482566072435 -0.06335324222804059 0  -0.1704095797717069 -0.07058595909974079 0  -0.1616789181894752 -0.06696960066389068 0  -0.1580625597536251 -0.07570026224612235 0  -0.145049086604272 -0.06008129888131908 0  -0.1547906164069036 -0.08359943224909384 0  -0.1783087497746783 -0.0738579024464623 0  -0.1783087497746783 -0.0738579024464623 0.006  -0.145049086604272 -0.06008129888131908 0.006  -0.1547906164069036 -0.08359943224909384 0.006  -0.1616789181894752 -0.06696960066389068 0.006  -0.1652952766253253 -0.05823893908165902 0  -0.1685672199720468 -0.05033976907868752 0  -0.1685672199720468 -0.05033976907868752 0.006  -0.117061527625433 -0.1170615276254329 0  -0.1304258457898587 -0.1304258457898587 0  -0.1237436867076458 -0.1237436867076458 0  -0.117061527625433 -0.1304258457898587 0  -0.111015764646288 -0.111015764646288 0  -0.111015764646288 -0.1364716087690037 0  -0.1364716087690037 -0.1364716087690036 0  -0.1364716087690037 -0.1364716087690036 0.006  -0.111015764646288 -0.111015764646288 0.006  -0.111015764646288 -0.1364716087690037 0.006  -0.1237436867076458 -0.1237436867076458 0.006  -0.1304258457898587 -0.1170615276254329 0  -0.1364716087690037 -0.1110157646462879 0  -0.1364716087690037 -0.1110157646462879 0.006  -0.0633532422280407 -0.1529482566072435 0  -0.07058595909974091 -0.1704095797717068 0  -0.06696960066389081 -0.1616789181894751 0  -0.05823893908165915 -0.1652952766253252 0  -0.06008129888131918 -0.145049086604272 0  -0.05033976907868765 -0.1685672199720468 0  -0.07385790244646243 -0.1783087497746783 0  -0.07385790244646243 -0.1783087497746783 0.006  -0.06008129888131918 -0.145049086604272 0.006  -0.05033976907868765 -0.1685672199720468 0.006  -0.06696960066389081 -0.1616789181894751 0.006  -0.07570026224612246 -0.158062559753625 0  -0.08359943224909397 -0.1547906164069035 0  -0.08359943224909397 -0.1547906164069035 0.006  -3.041104163982664e-17 -0.16555 0  -3.388291531540939e-17 -0.18445 0  -3.214697847761802e-17 -0.175 0  0.009449999999999967 -0.175 0  -2.884043211992017e-17 -0.157 0  0.01799999999999997 -0.175 0  -3.545352483531587e-17 -0.193 0  -3.545352483531587e-17 -0.193 0.006  -2.884043211992017e-17 -0.157 0.006  0.01799999999999997 -0.175 0.006  -3.214697847761802e-17 -0.175 0.006  -0.009450000000000033 -0.175 0  -0.01800000000000003 -0.175 0  -0.01800000000000003 -0.175 0.006  0.06335324222804065 -0.1529482566072435 0  0.07058595909974086 -0.1704095797717068 0  0.06696960066389075 -0.1616789181894752 0  0.07570026224612242 -0.1580625597536251 0  0.06008129888131913 -0.145049086604272 0  0.08359943224909391 -0.1547906164069035 0  0.07385790244646236 -0.1783087497746783 0  0.07385790244646236 -0.1783087497746783 0.006  0.06008129888131913 -0.145049086604272 0.006  0.08359943224909391 -0.1547906164069035 0.006  0.06696960066389075 -0.1616789181894752 0.006  0.05823893908165909 -0.1652952766253253 0  0.05033976907868759 -0.1685672199720468 0  0.05033976907868759 -0.1685672199720468 0.006  0.1170615276254329 -0.117061527625433 0  0.1304258457898587 -0.1304258457898587 0  0.1237436867076458 -0.1237436867076458 0  0.1304258457898587 -0.117061527625433 0  0.1110157646462879 -0.111015764646288 0  0.1364716087690036 -0.111015764646288 0  0.1364716087690036 -0.1364716087690037 0  0.1364716087690036 -0.1364716087690037 0.006  0.1110157646462879 -0.111015764646288 0.006  0.1364716087690036 -0.111015764646288 0.006  0.1237436867076458 -0.1237436867076458 0.006  0.1170615276254329 -0.1304258457898587 0  0.1110157646462879 -0.1364716087690037 0  0.1110157646462879 -0.1364716087690037 0.006  0.1529482566072435 -0.0633532422280407 0  0.1704095797717068 -0.07058595909974093 0  0.1616789181894751 -0.06696960066389081 0  0.1652952766253252 -0.05823893908165915 0  0.145049086604272 -0.06008129888131919 0  0.1685672199720468 -0.05033976907868765 0  0.1783087497746783 -0.07385790244646244 0  0.1783087497746783 -0.07385790244646244 0.006  0.145049086604272 -0.06008129888131919 0.006  0.1685672199720468 -0.05033976907868765 0.006  0.1616789181894751 -0.06696960066389081 0.006  0.158062559753625 -0.07570026224612246 0  0.1547906164069035 -0.08359943224909397 0  0.1547906164069035 -0.08359943224909397 0.006  0.1816821590571039 0.006682159107321884 0  0.1683178408904039 0.006682159054829612 0  0.1905884572626798 0.009000000009422473 0  0.1839999999697972 0.01558845728555746 0  0.1659999999713115 0.01558845725155659 0  0.1594115427217315 0.008999999982422135 0  0.1659999999999918 0 0.006  0.1839999999999864 0 0.006  0.1905884572626798 0.009000000009422473 0.006  0.1839999999697972 0.01558845728555746 0.006  0.1659999999713115 0.01558845725155659 0.006  0.1594115427217315 0.008999999982422135 0.006  0.1816821590822129 -0.006682159082212883 0  0.1683178409177871 -0.006682159082212875 0  0.1594115427217313 -0.008999999982421729 0  0.1659999999713265 -0.01558845725156525 0  0.1839999999697972 -0.01558845728555747 0  0.1905884572626846 -0.009000000009414219 0  0.1839999999697972 -0.01558845728555747 0.006  0.1905884572626846 -0.00
[...]
<PointData  Vectors="f_723"> 
<DataArray  type="Float64"  Name="f_723"  NumberOfComponents="3" format="ascii">-6.0602434970079527e-05 1.9619120667363078e-05 0.0000000000000000e+00  -4.9377983814045114e-05 1.6026128446183281e-05 0.0000000000000000e+00  -6.0465568002483939e-05 1.9490527784100937e-05 0.0000000000000000e+00  -5.0026483055298654e-05 1.6372257502513580e-05 0.0000000000000000e+00  -3.6558793082062043e-05 1.3125469080781268e-05 0.0000000000000000e+00  -5.5323918059533883e-05 1.9586338417857799e-05 0.0000000000000000e+00  -3.6485950427445425e-05 1.3131851480138266e-05 0.0000000000000000e+00  -4.1936477968376954e-05 1.4522917827562026e-05 0.0000000000000000e+00  -3.5777223995405482e-05 1.2929798686716089e-05 0.0000000000000000e+00  -5.5250182706705283e-05 1.9574491829856202e-05 0.0000000000000000e+00  -3.5715448628378620e-05 1.2932274064453026e-05 0.0000000000000000e+00  -3.9391660847078675e-05 1.3667884399017155e-05 0.0000000000000000e+00  -1.4797662378961133e-05 5.9264523936569735e-06 0.0000000000000000e+00  -1.4469756194449454e-05 5.8252523139298906e-06 0.0000000000000000e+00  -1.9487167015572800e-04 5.9059672123271812e-05 0.0000000000000000e+00  -1.9291925365101314e-04 5.8467069117913142e-05 0.0000000000000000e+00  -2.3637084871177411e-04 7.1482169936082991e-05 0.0000000000000000e+00  -2.0461293951813371e-04 6.2629193002659725e-05 0.0000000000000000e+00  -1.4262292179347029e-04 4.7585843698278273e-05 0.0000000000000000e+00  -1.5476474355970903e-04 5.2161215543093876e-05 0.0000000000000000e+00  -1.4297970709120739e-04 4.7650528713832921e-05 0.0000000000000000e+00  -1.3993820979235280e-04 4.6926864292803333e-05 0.0000000000000000e+00  -1.3964213796068258e-04 4.6869574587511544e-05 0.0000000000000000e+00  -1.5400364728196099e-04 5.1964641959800333e-05 0.0000000000000000e+00  -1.6387526061120559e-04 5.2732017539522504e-05 0.0000000000000000e+00  -1.8633354700135692e-04 5.8002389692095926e-05 0.0000000000000000e+00  -1.1945016314249621e-04 4.0316111391059006e-05 0.0000000000000000e+00  -1.1819487235147453e-04 3.9970987748060005e-05 0.0000000000000000e+00  -3.1016345831926093e-04 9.2892019288910615e-05 0.0000000000000000e+00  -3.0611526314510491e-04 9.0963955609083295e-05 0.0000000000000000e+00  -3.7532574690860238e-04 1.1155386777075744e-04 0.0000000000000000e+00  -3.1657013823834770e-04 9.6317790258850186e-05 0.0000000000000000e+00  -2.2688042398253723e-04 7.4760950878006429e-05 0.0000000000000000e+00  -2.3075150416417115e-04 7.6854870727427883e-05 0.0000000000000000e+00  -2.2731626689802509e-04 7.4730214289360681e-05 0.0000000000000000e+00  -2.2251563503897042e-04 7.3628410609214389e-05 0.0000000000000000e+00  -2.2213846935284826e-04 7.3635172630348488e-05 0.0000000000000000e+00  -2.2905710849310676e-04 7.6425078525555417e-05 0.0000000000000000e+00  -2.6048012099084484e-04 8.2643545878592438e-05 0.0000000000000000e+00  -3.0476073682317154e-04 9.2873969863101563e-05 0.0000000000000000e+00  -2.0549153952767558e-04 6.8415976091926173e-05 0.0000000000000000e+00  -2.0403140883555368e-04 6.8019427736108022e-05 0.0000000000000000e+00  -3.7757958377450211e-04 1.1241071290797732e-04 0.0000000000000000e+00  -3.7391648113167450e-04 1.1168812822426110e-04 0.0000000000000000e+00  -4.5784757266638534e-04 1.3607618173590698e-04 0.0000000000000000e+00  -3.7737117078015373e-04 1.1506708603855260e-04 0.0000000000000000e+00  -2.7653487868956316e-04 9.0766815107914167e-05 0.0000000000000000e+00  -2.7157202646929370e-04 9.0084645957720514e-05 0.0000000000000000e+00  -2.7722859245867670e-04 9.0939209752604071e-05 0.0000000000000000e+00  -2.7134724365931361e-04 8.9556415159587244e-05 0.0000000000000000e+00  -2.7076741612868581e-04 8.9409587260762830e-05 0.0000000000000000e+00  -2.6990584765146088e-04 8.9646294118530517e-05 0.0000000000000000e+00  -3.1757915537280828e-04 1.0055066524320956e-04 0.0000000000000000e+00  -3.7247203083044388e-04 1.1310115753628943e-04 0.0000000000000000e+00  -2.6080182815466308e-04 8.6514549724085716e-05 0.0000000000000000e+00  -2.5936147157613627e-04 8.6118908792554250e-05 0.0000000000000000e+00  -3.8559514912651287e-04 1.1478428642428547e-04 0.0000000000000000e+00  -3.8312849460748604e-04 1.1292926644812970e-04 0.0000000000000000e+00  -4.6964436416171854e-04 1.3844006253397006e-04 0.0000000000000000e+00  -3.8316741954697346e-04 1.1607830824731240e-04 0.0000000000000000e+00  -2.8317950290708148e-04 9.2704605695127231e-05 0.0000000000000000e+00  -2.7066173654950937e-04 8.9370070729081981e-05 0.0000000000000000e+00  -2.8450788786920435e-04 9.2838669168496908e-05 0.0000000000000000e+00  -2.7852063801126078e-04 9.1476586153387983e-05 0.0000000000000000e+00  -2.7801512623904396e-04 9.1473012951148939e-05 0.0000000000000000e+00  -2.6889922391643445e-04 8.8908002198908776e-05 0.0000000000000000e+00  -3.2605989318569074e-04 1.0266232097567643e-04 0.0000000000000000e+00  -3.8949594766213020e-04 1.1772593848064784e-04 0.0000000000000000e+00  -2.7580336855971695e-04 9.1211796532414941e-05 0.0000000000000000e+00  -2.7358791141193317e-04 9.0645256068301664e-05 0.0000000000000000e+00  -3.3845259608001677e-04 1.0012802707865467e-04 0.0000000000000000e+00  -3.3506940757709763e-04 9.9284770537598049e-05 0.0000000000000000e+00  -4.1028465300620718e-04 1.2099446437206492e-04 0.0000000000000000e+00  -3.3016254632592981e-04 9.9525497006986991e-05 0.0000000000000000e+00  -2.4795083099163676e-04 8.0990276098796937e-05 0.0000000000000000e+00  -2.2845127180808769e-04 7.5322217638277173e-05 0.0000000000000000e+00  -2.4858842042494881e-04 8.1109995235963369e-05 0.0000000000000000e+00  -2.4333792881027239e-04 7.9898233791202096e-05 0.0000000000000000e+00  -2.4278445073783379e-04 7.9788943030667094e-05 0.0000000000000000e+00  -2.2685792199663511e-04 7.4896591682165864e-05 0.0000000000000000e+00  -2.8474253562466430e-04 8.9601042940471313e-05 0.0000000000000000e+00  -3.4567453888236410e-04 1.0436067148547318e-04 0.0000000000000000e+00  -2.4849920535602657e-04 8.2188031396334866e-05 0.0000000000000000e+00  -2.4702334562114842e-04 8.1807950779560698e-05 0.0000000000000000e+00  -2.3988213157551916e-04 7.3245538307418871e-05 0.0000000000000000e+00  -2.3206196679254973e-04 6.5652916617932327e-05 0.0000000000000000e+00  -2.8955387928261694e-04 8.6928706649639579e-05 0.0000000000000000e+00  -2.3095972953374714e-04 7.0993678666247538e-05 0.0000000000000000e+00  -1.7451139274966129e-04 5.7486907815195763e-05 0.0000000000000000e+00  -1.5137834920734850e-04 5.0100198741147432e-05 0.0000000000000000e+00  -1.7434708148842543e-04 5.6774079020384476e-05 0.0000000000000000e+00  -1.7073249704582276e-04 5.6036439038076453e-05 0.0000000000000000e+00  -1.7080633852297182e-04 5.6545432919961573e-05 0.0000000000000000e+00  -1.4988471885621699e-04 4.9701827502142144e-05 0.0000000000000000e+00  -2.0026164293892470e-04 6.3418049453030207e-05 0.0000000000000000e+00  -2.4536999405307401e-04 7.4674406865009020e-05 0.0000000000000000e+00  -1.8388960132783533e-04 6.1029555199911803e-05 0.0000000000000000e+00  -1.8310511482134186e-04 6.0831243738034219e-05 0.0000000000000000e+00  -1.0060050642353769e-04 3.0718338239062626e-05 0.0000000000000000e+00  -9.8348816773300416e-05 2.8180800562258728e-05 0.0000000000000000e+00  -1.2253593015117795e-04 3.6971802231070496e-05 0.0000000000000000e+00  -9.1160445215381842e-05 2.8354107371946671e-05 0.0000000000000000e+00  -7.3509029007003292e-05 2.4361254917894755e-05 0.0000000000000000e+00  -5.0988909087508838e-05 1.6910173687322441e-05 0.0000000000000000e+00  -7.3696677436209431e-05 2.4172354648364138e-05 0.0000000000000000e+00  -7.2171343451157079e-05 2.3851471814787281e-05 0.0000000000000000e+00  -7.2150150974962572e-05 2.4017426602664283e-05 0.0000000000000000e+00  -5.0259886738799821e-05 1.6705461832327681e-05 0.0000000000000000e+00  -8.4677462594331482e-05 2.6974940810003023e-05 0.0000000000000000e+00  -1.1023294386891826e-04 3.3486521919116179e-05 0.0000000000000000e+00  -9.0630375244437971e-05 3.0325246120584774e-05 0.0000000000000000e+00  -9.0395320867500339e-05 3.0270838057310912e-05 0.0000000000000000e+00  5.2030929635043135e-05 -1.5378564889504111e-05 0.0000000000000000e+00  5.1734944891730353e-05 -1.5160754914606337e-05 0.0000000000000000e+00  6.3327648758059303e-05 -1.8634954844577048e-05 0.0000000000000000e+00  6.2641357732680012e-05 -1.8561586874433389e-05 0.0000000000000000e+00  3.8365918881852582e-05 -1.2372234085926999e-05 0.0000000000000000e+00  5.7401056500810610e-05 -1.8940996102995608e-05 0.0000000000000000e+00  3.8541403906767450e-05 -1.2390766206136020e-05 0.0000000000000000e+00  3.7739428168863075e-05 -1.2203568202236455e-05 0.0000000000000000e+00  3.7677736337776992e-05 -1.2204669474269707e-05 0.0000000000000000e+00  5.7250475064221152e-05 -1.8916836515800862e-05 0.0000000000000000e+00  4.4107276023762525e-05 -1.3737643942464935e-05 0.0000000000000000e+00  4.2191726118572824e-05 -1.2929393722874886e-05 0.0000000000000000e+00  1.6651023872249955e-05 -5.1356035413341905e-06 0.0000000000000000e+00  1.6203160357345214e-05 -5.0028540780627029e-06 0.0000000000000000e+00  1.9698134776947364e-04 -6.0198079827730772e-05 0.0000000000000000e+00  1.9276423716338401e-04 -5.4518632168934905e-05 0.0000000000000000e+00  2.4031103871030305e-04 -7.2329322133793752e-05 0.0000000000000000e+00  2.0798282205243876e-04 -6.3212752637679167e-05 0.0000000000000000e+00  1.4447643153098650e-04 -4.7315141315198865e-05 0.0000000000000000e+00  1.5693184631103012e-04 -5.1750699191513454e-05 0.0000000000000000e+00  1.4493694661116361e-04 -4.6900119377734838e-05 0.0000000000000000e+00  1.4197617532054339e-04 -4.6277073734102866e-05 0.0000000000000000e+00  1.4200845612423381e-04 -4.6670293534562364e-05 0.0000000000000000e+00  1.5619956361743030e-04 -5.1563250845076672e-05 0.0000000000000000e+00  1.6644119354819237e-04 -5.2524335924484505e-05 0.0000000000000000e+00  1.8953992352209185e-04 -5.8231120550737983e-05 0.0000000000000000e+00  1.2163902084223944e-04 -3.9895618074814050e-05 0.0000000000000000e+00  1.2037295597810873e-04 -3.9551258310171634e-05 0.0000000000000000e+00  3.1250359952143087e-04 -9.1940521474410234e-05 0.0000000000000000e+00  3.0844652458432821e-04 -8.9941117166879062e-05 0.0000000000000000e+00  3.7804898384395208e-04 -1.1042693557018498e-04 0.0000000000000000e+00  3.1970454750090082e-04 -9.5280613874086732e-05 0.0000000000000000e+00  2.2889920536162388e-04 -7.4007056613966063e-05 0.0000000000000000e+00  2.3236117281944110e-04 -7.5967335318119191e-05 0.0000000000000000e+00  2.2933636061684743e-04 -7.3964213324097250e-05 0.0000000000000000e+00  2.2455983928968846e-04 -7.2885638913229659e-05 0.0000000000000000e+00  2.2413504286170711e-04 -7.2891612187482189e-05 0.0000000000000000e+00  2.3108565183377103e-04 -7.5639284036381992e-05 0.0000000000000000e+00  2.6266114389272220e-04 -8.1800231798212822e-05 0.0000000000000000e+00  3.0644645029721194e-04 -9.1960720802520976e-05 0.0000000000000000e+00  2.0778366074724892e-04 -6.7812604661694596e-05 0.0000000000000000e+00  2.0589819895859405e-04 -6.7321091476035203e-05 0.0000000000000000e+00  3.7773954294029622e-04 -1.1124371312123553e-04 0.0000000000000000e+00  3.7527811462925714e-04 -1.0936176798341983e-04 0.0000000000000000e+00  4.6004361752738116e-04 -1.3432321089792997e-04 0.0000000000000000e+00  3.7915506508826588e-04 -1.1334694628421092e-04 0.0000000000000000e+00  2.7766631824910907e-04 -8.9687866754711986e-05 0.0000000000000000e+00  2.7332583475550516e-04 -8.9062808768858019e-05 0.0000000000000000e+00  2.7895583941053056e-04 -8.9807531026261879e-05 0.0000000000000000e+00  2.7310482686418138e-04 -8.8482507835469204e-05 0.0000000000000000e+00  2.7261667724382243e-04 -8.8487807342934092e-05 0.0000000000000000e+00  2.7165359685790388e-04 -8.8631046980696716e-05 0.0000000000000000e+00  3.1956179394166176e-04 -9.9379814708837826e-05 0.0000000000000000e+00  3.7415051104265005e-04 -1.1224917643862661e-04 0.0000000000000000e+00  2.6275550961198601e-04 -8.5627576084622780e-05 0.0000000000000000e+00  2.6101529303892697e-04 -8.5172860510013835e-05 0.0000000000000000e+00  3.8759687028698888e-04 -1.1391734389791392e-04 0.0000000000000000e+00  3.8513241115451321e-04 -1.1195770749099336e-04 0.0000000000000000e+00  4.7188596096002511e-04 -1.3755720098653453e-04 0.0000000000000000e+00  3.8620929058182102e-04 -1.1521609205009407e-04 0.0000000000000000e+00  2.8486468730232287e-04 -9.1761875100590683e-05 0.0000000000000000e+00  2.7214620807628821e-04 -8.8324419129354396e-05 0.0000000000000000e+00  2.8621656788305541e-04 -9.1890117565660443e-05 0.0000000000000000e+00  2.8018098499826751e-04 -9.0523967636841165e-05 0.0000000000000000e+00  2.7968243178602405e-04 -9.0530359805415702e-05 0.0000000000000000e+00  2.7065516178519425e-04 -8.7929077705177977e-05 0.0000000000000000e+00  3.2782839811133454e-04 -1.0170693284343735e-04 0.0000000000000000e+00  3.9170269411908481e-04 -1.1695365169316840e-04 0.0000000000000000e+00  2.7751270131689989e-04 -9.0306409102553970e-05 0.0000000000000000e+00  2.7529035646111044e-04 -8.9741005594456085e-05 0.0000000000000000e+00  3.3936862176768524e-04 -9.9804617342559934e-05 0.0000000000000000e+00  3.3612072876907479e-04 -9.6898161088307684e-05 0.0000000000000000e+00  4.1027302452159543e-04 -1.1688062434163505e-04 0.0000000000000000e+00  3.3581607524697641e-04 -9.8358461032146659e-05 0.0000000000000000e+00  2.4871971099497600e-04 -7.9541669211554867e-05 0.0000000000000000e+00  2.2936278477327484e-04 -7.3826200020359780e-05 0.0000000000000000e+00  2.4974906033419831e-04 -7.9479412949155749e-05 0.0000000000000000e+00  2.4455837834259838e-04 -7.8339784182755010e-05 0.0000000000000000e+00  2.4418861156598866e-04 -7.8470986635669214e-05 0.0000000000000000e+00  2.2772486400549473e-04 -7.3397416455817032e-05 0.0000000000000000e+00  2.8587595973881305e-04 -8.7653324512287955e-05 0.0000000000000000e+00  3.4493449070318276e-04 -1.0106394602688624e-04 0.0000000000000000e+00  2.5012757386980779e-04 -8.0837312758382207e-05 0.0000000000000000e+00  2.4825440269968203e-04 -8.0381168432121903e-05 0.0000000000000000e+00  2.3979651471849809e-04 -6.9468047388601486e-05 0.0000000000000000e+00  2.3733695720986280e-04 -6.8869623502108959e-05 0.0000000000000000e+00  2.9060026118295229e-04 -8.4203743034476903e-05 0.0000000000000000e+00  2.3057903488541963e-04 -6.8617881025955028e-05 0.0000000000000000e+00  1.7576719053857514e-04 -5.5958308575304626e-05 0.0000000000000000e+00  1.5296559731144455e-04 -4.8972960440619374e-05 0.0000000000000000e+00  1.7618723082656122e-04 -5.6046012789132253e-05 0.0000000000000000e+00  1.7248197730953394e-04 -5.5193510371596166e-05 0.0000000000000000e+00  1.7211406385652395e-04 -5.5113571623991887e-05 0.0000000000000000e+00  1.5194864946394194e-04 -4.8697867308514610e-05 0.0000000000000000e+00  2.0177508237242188e-04 -6.2042394850282597e-05 0.0000000000000000e+00  2.4796542858388708e-04 -7.2822803210111190e-05 0.0000000000000000e+00  1.8533911033212031e-04 -5.9818626885347820e-05 0.0000000000000000e+00  1.8407768061764752e-04 -5.9509467045560953e-05 0.0000000000000000e+00  1.0270224776114701e-04 -2.8913555142589978e-05 0.0000000000000000e+00  1.0137363519770161e-04 -2.8285637608120434e-05 0.0000000000000000e+00  1.2418690178385341e-04 -3.4795476618991583e-05 0.0000000000000000e+00  9.2110745850346339e-05 -2.6544947062768163e-05 0.0000000000000000e+00  7.5319555866502664e-05 -2.3253484865092530e-05 0.0000000000000000e+00  5.2725250289567549e-05 -1.5930625153218463e-05 0.0000000000000000e+00  7.5463291730478186e-05 -2.3242730092558227e-05 0.0000000000000000e+00  7.3882098514625150e-05 -2.2898460014262309e-05 0.0000000000000000e+00  7.3757901198580203e-05 -2.2900809948394755e-05 0.0000000000000000e+00  5.2202429319835378e-05 -1.5786824336834789e-05 0.0000000000000000e+00  8.6372932390625258e-05 -2.5719139472670974e-05 0.0000000000000000e+00  1.1264284778255890e-04 -3.2116197310231564e-05 0.0000000000000000e+00  9.2276722432916300e-05 -2.9268929405595604e-05 0.0000000000000000e+00  9.1833183059614396e-05 -2.9176857082734334e-05 0.0000000000000000e+00  -5.5973054909230050e-05 1.8092204601326213e-05 0.0000000000000000e+00  -5.6298806878342423e-05 1.8270596817194663e-05 0.0000000000000000e+00  -4.5244743146548255e-05 1.6119303113174127e-05 0.0000000000000000e+00  -5.2135176092081246e-05 1.8488032840571062e-05 0.0000000000000000e+00  -5.3519499020681535e-05 1.8944319626806542e-05 0.0000000000000000e+00  -4.6630238001051178e-05 1.6606794768006205e-05 0.0000000000000000e+00  -3.8962155660961684e-05 1.3746550621767123e-05 0.0000000000000000e+00  -3.8821527937679880e-05 1.3684542411287204e-05 0.0000000000000000e+00  -4.4753555819049169e-05 1.5987810725104852e-05 0.0000000000000000e+00  -5.1689144246407820e-05 1.8378338641069484e-05 0.0000000000000000e+00  -5.3451210699694359e-05 1.8962456384700613e-05 0.0000000000000000e+00  -4.5946492997829128e-05 1.6423774292616015e-05 0.0000000000000000e+00  -4.2524941645543476e-05 1.4298156038980454e-05 0.0000000000000000e+00  -4.2033453173807822e-05 1.4250059899059234e-05 0.0000000000000000e+00  -2.4869769487002005e-05 9.2777180809723892e-06 0.0000000000000000e+00  -1.7187376749588016e-05 6.7263182563752657e-06 0.0000000000000000e+00  -1.8505325227651488e-05 7.1539919507982509e-06 0.0000000000000000e+00  -2.6545039829697413e-05 9.8004991085188079e-06 0.0000000000000000e+00  -1.8114550630587089e-05 7.0348204815014325e-06 0.0000000000000000e+00  -2.6172271822226101e-05 9.7046637487903908e-06 0.0000000000000000e+00  -2.4387621251937781e-05 9.1555023510983613e-06 0.0000000000000000e+00  -1.6299367559581259e-05 6.4480648427599761e-06 0.0000000000000000e+00  -1.9780892162146643e-04 6.0467161408967012e-05 0.0000000000000000e+00  -1.9776473656351329e-04 6.0397677188394937e-05 0.0000000000000000e+00  -1.4928804285102923e-04 5.0085765793967775e-05 0.0000000000000000e+00  -1.5415607183826035e-04 5.1833716551640732e-05 0.0000000000000000e+00  -1.5291123657425542e-04 5.1439935539181517e-05 0.0000000000000000e+00  -1.4858620165938082e-04 4.9784206419238795e-05 0.0000000000000000e+00  -1.5181887397635325e-04 4.9714757984428579e-05 0.0000000000000000e+00  -1.5222443672591391e-04 4.9808940806502041e-05 0.0000000000000000e+00  -1.5120527925193030e-04 5.1015530245314059e-05 0.0000000000000000e+00  -1.4684303518732377e-04 4.9348382573472741e-05 0.0000000000000000e+00  -1.4694579685350348e-04 4.9511973172919278e-05 0.0000000000000000e+00  -1.5264667096009590e-04 5.1488341322865295e-05 0.0000000000000000e+00  -1.8876308657520105e-04 5.7783841913148720e-05 0.0000000000000000e+00  -1.8543572771608554e-04 5.7084061661917201e-05 0.0000000000000000e+00  -1.3027210708015975e-04 4.3717721575002056e-05 0.0000000000000000e+00  -1.2242365894188543e-04 4.1228336049190691e-05 0.0000000000000000e+00  -1.2243854693650511e-04 4.1317058427106683e-05 0.0000000000000000e+00  -1.3216894843452975e-04 4.4277596995238411e-05 0.0000000000000000e+00  -1.2169199413144920e-04 4.1114071505484124e-05 0.0000000000000000e+00  -1.3056371602977244e-04 4.3877976160236113e-05 0.0000000000000000e+00  -1.2810641918492073e-04 4.3195528227547195e-05 0.0000000000000000e+00  -1.2017894625919901e-04 4.0615712921906653e-05 0.0000000000000000e+00  -3.1336986661100515e-04 9.4006951133032097e-05 0.0000000000000000e+00  -3.0923593122591614e-04 9.3616141779403477e-05 0.0000000000000000e+00  -2.2905421125851393e-04 7.5932590876684106e-05 0.0000000000000000e+00  -2.3116149358531028e-04 7.6841834848635161e-05 0.0000000000000000e+00  -2.2862573791769509e-04 7.6158011695788162e-05 0.0000000000000000e+00  -2.2889308745866759e-04 7.5710615188368527e-05 0.0000000000000000e+00  -2.4131205688170373e-04 7.7895821027201600e-05 0.0000000000000000e+00  -2.4212747518730749e-04 7.8226537172925993e-05 0.0000000000000000e+00  -2.2726000560013300e-04 7.5785443184233066e-05 0.0000000000000000e+00  -2.2624932614142879e-04 7.5065826220926081e-05 0.0000000000000000e+00  -2.2540474833930373e-04 7.5052668032718050e-05 0.0000000000000000e+00  -2.2842850766624333e-04 7.6182742569422805e-05 0.0000000000000000e+00  -3.0193238