<?xml version="1.0"?>
<VTKFile type="UnstructuredGrid"  version="0.1"  >
<UnstructuredGrid>
<Piece  NumberOfPoints="3120" NumberOfCells="11982">
<Points>
<DataArray  type="Float64"  NumberOfComponents="3"  format="ascii">0.175 0 0  0.18445 0 0  0.175 0.00945 0  0.16555 0 0  0.193 0 0  0.175 0.018 0  0.157 0 0  0.175 0 0.006  0.193 0 0.006  0.175 0.018 0.006  0.157 0 0.006  0.175 -0.00945 0  0.175 -0.018 0  0.175 -0.018 0.006  0.1529482566072435 0.0633532422280406 0  0.1704095797717068 0.07058595909974082 0  0.1616789181894752 0.06696960066389071 0  0.1580625597536251 0.07570026224612236 0  0.145049086604272 0.0600812988813191 0  0.1547906164069036 0.08359943224909387 0  0.1783087497746783 0.07385790244646231 0  0.1783087497746783 0.07385790244646231 0.006  0.145049086604272 0.0600812988813191 0.006  0.1547906164069036 0.08359943224909387 0.006  0.1616789181894752 0.06696960066389071 0.006  0.1652952766253253 0.05823893908165905 0  0.1685672199720468 0.05033976907868755 0  0.1685672199720468 0.05033976907868755 0.006  0.1170615276254329 0.1170615276254329 0  0.1304258457898587 0.1304258457898587 0  0.1237436867076458 0.1237436867076458 0  0.117061527625433 0.1304258457898587 0  0.111015764646288 0.111015764646288 0  0.111015764646288 0.1364716087690037 0  0.1364716087690037 0.1364716087690036 0  0.1364716087690037 0.1364716087690036 0.006  0.111015764646288 0.111015764646288 0.006  0.111015764646288 0.1364716087690037 0.006  0.1237436867076458 0.1237436867076458 0.006  0.1304258457898587 0.1170615276254329 0  0.1364716087690037 0.1110157646462879 0  0.1364716087690037 0.1110157646462879 0.006  0.06335324222804062 0.1529482566072435 0  0.07058595909974082 0.1704095797717068 0  0.06696960066389071 0.1616789181894752 0  0.05823893908165905 0.1652952766253253 0  0.06008129888131911 0.145049086604272 0  0.05033976907868755 0.1685672199720468 0  0.07385790244646233 0.1783087497746783 0  0.07385790244646233 0.1783087497746783 0.006  0.06008129888131911 0.145049086604272 0.006  0.05033976907868755 0.1685672199720468 0.006  0.06696960066389071 0.1616789181894752 0.006  0.07570026224612236 0.1580625597536251 0  0.08359943224909387 0.1547906164069036 0  0.08359943224909387 0.1547906164069036 0.006  1.013701387994221e-17 0.16555 0  1.129430510513647e-17 0.18445 0  1.071565949253934e-17 0.175 0  -0.00944999999999999 0.175 0  9.613477373306723e-18 0.157 0  -0.01799999999999999 0.175 0  1.181784161177196e-17 0.193 0  1.181784161177196e-17 0.193 0.006  9.613477373306723e-18 0.157 0.006  -0.01799999999999999 0.175 0.006  1.071565949253934e-17 0.175 0.006  0.00945000000000001 0.175 0  0.01800000000000001 0.175 0  0.01800000000000001 0.175 0.006  -0.06335324222804059 0.1529482566072435 0  -0.0705859590997408 0.1704095797717068 0  -0.0669696006638907 0.1616789181894752 0  -0.07570026224612236 0.1580625597536251 0  -0.06008129888131909 0.145049086604272 0  -0.08359943224909386 0.1547906164069036 0  -0.07385790244646231 0.1783087497746783 0  -0.07385790244646231 0.1783087497746783 0.006  -0.06008129888131909 0.145049086604272 0.006  -0.08359943224909386 0.1547906164069036 0.006  -0.0669696006638907 0.1616789181894752 0.006  -0.05823893908165904 0.1652952766253253 0  -0.05033976907868754 0.1685672199720468 0  -0.05033976907868754 0.1685672199720468 0.006  -0.1170615276254329 0.1170615276254329 0  -0.1304258457898587 0.1304258457898587 0  -0.1237436867076458 0.1237436867076458 0  -0.1304258457898587 0.117061527625433 0  -0.111015764646288 0.111015764646288 0  -0.1364716087690037 0.111015764646288 0  -0.1364716087690036 0.1364716087690037 0  -0.1364716087690036 0.1364716087690037 0.006  -0.111015764646288 0.111015764646288 0.006  -0.1364716087690037 0.111015764646288 0.006  -0.1237436867076458 0.1237436867076458 0.006  -0.1170615276254329 0.1304258457898587 0  -0.1110157646462879 0.1364716087690037 0  -0.1110157646462879 0.1364716087690037 0.006  -0.1529482566072435 0.06335324222804062 0  -0.1704095797717068 0.07058595909974083 0  -0.1616789181894752 0.06696960066389072 0  -0.1652952766253253 0.05823893908165906 0  -0.145049086604272 0.06008129888131911 0  -0.1685672199720468 0.05033976907868756 0  -0.1783087497746783 0.07385790244646234 0  -0.1783087497746783 0.07385790244646234 0.006  -0.145049086604272 0.06008129888131911 0.006  -0.1685672199720468 0.05033976907868756 0.006  -0.1616789181894752 0.06696960066389072 0.006  -0.1580625597536251 0.07570026224612239 0  -0.1547906164069036 0.08359943224909389 0  -0.1547906164069036 0.08359943224909389 0.006  -0.16555 2.027402775988443e-17 0  -0.18445 2.258861021027293e-17 0  -0.175 2.143131898507868e-17 0  -0.175 -0.009449999999999979 0  -0.157 1.922695474661345e-17 0  -0.175 -0.01799999999999998 0  -0.193 2.363568322354391e-17 0  -0.193 2.363568322354391e-17 0.006  -0.157 1.922695474661345e-17 0.006  -0.175 -0.01799999999999998 0.006  -0.175 2.143131898507868e-17 0.006  -0.175 0.009450000000000021 0  -0.175 0.01800000000000002 0  -0.175 0.01800000000000002 0.006  -0.1529482566072435 -0.06335324222804059 0  -0.1704095797717069 -0.07058595909974079 0  -0.1616789181894752 -0.06696960066389068 0  -0.1580625597536251 -0.07570026224612235 0  -0.145049086604272 -0.06008129888131908 0  -0.1547906164069036 -0.08359943224909384 0  -0.1783087497746783 -0.0738579024464623 0  -0.1783087497746783 -0.0738579024464623 0.006  -0.145049086604272 -0.06008129888131908 0.006  -0.1547906164069036 -0.08359943224909384 0.006  -0.1616789181894752 -0.06696960066389068 0.006  -0.1652952766253253 -0.05823893908165902 0  -0.1685672199720468 -0.05033976907868752 0  -0.1685672199720468 -0.05033976907868752 0.006  -0.117061527625433 -0.1170615276254329 0  -0.1304258457898587 -0.1304258457898587 0  -0.1237436867076458 -0.1237436867076458 0  -0.117061527625433 -0.1304258457898587 0  -0.111015764646288 -0.111015764646288 0  -0.111015764646288 -0.1364716087690037 0  -0.1364716087690037 -0.1364716087690036 0  -0.1364716087690037 -0.1364716087690036 0.006  -0.111015764646288 -0.111015764646288 0.006  -0.111015764646288 -0.1364716087690037 0.006  -0.1237436867076458 -0.1237436867076458 0.006  -0.1304258457898587 -0.1170615276254329 0  -0.1364716087690037 -0.1110157646462879 0  -0.1364716087690037 -0.1110157646462879 0.006  -0.0633532422280407 -0.1529482566072435 0  -0.07058595909974091 -0.1704095797717068 0  -0.06696960066389081 -0.1616789181894751 0  -0.05823893908165915 -0.1652952766253252 0  -0.06008129888131918 -0.145049086604272 0  -0.05033976907868765 -0.1685672199720468 0  -0.07385790244646243 -0.1783087497746783 0  -0.07385790244646243 -0.1783087497746783 0.006  -0.06008129888131918 -0.145049086604272 0.006  -0.05033976907868765 -0.1685672199720468 0.006  -0.06696960066389081 -0.1616789181894751 0.006  -0.07570026224612246 -0.158062559753625 0  -0.08359943224909397 -0.1547906164069035 0  -0.08359943224909397 -0.1547906164069035 0.006  -3.041104163982664e-17 -0.16555 0  -3.388291531540939e-17 -0.18445 0  -3.214697847761802e-17 -0.175 0  0.009449999999999967 -0.175 0  -2.884043211992017e-17 -0.157 0  0.01799999999999997 -0.175 0  -3.545352483531587e-17 -0.193 0  -3.545352483531587e-17 -0.193 0.006  -2.884043211992017e-17 -0.157 0.006  0.01799999999999997 -0.175 0.006  -3.214697847761802e-17 -0.175 0.006  -0.009450000000000033 -0.175 0  -0.01800000000000003 -0.175 0  -0.01800000000000003 -0.175 0.006  0.06335324222804065 -0.1529482566072435 0  0.07058595909974086 -0.1704095797717068 0  0.06696960066389075 -0.1616789181894752 0  0.07570026224612242 -0.1580625597536251 0  0.06008129888131913 -0.145049086604272 0  0.08359943224909391 -0.1547906164069035 0  0.07385790244646236 -0.1783087497746783 0  0.07385790244646236 -0.1783087497746783 0.006  0.06008129888131913 -0.145049086604272 0.006  0.08359943224909391 -0.1547906164069035 0.006  0.06696960066389075 -0.1616789181894752 0.006  0.05823893908165909 -0.1652952766253253 0  0.05033976907868759 -0.1685672199720468 0  0.05033976907868759 -0.1685672199720468 0.006  0.1170615276254329 -0.117061527625433 0  0.1304258457898587 -0.1304258457898587 0  0.1237436867076458 -0.1237436867076458 0  0.1304258457898587 -0.117061527625433 0  0.1110157646462879 -0.111015764646288 0  0.1364716087690036 -0.111015764646288 0  0.1364716087690036 -0.1364716087690037 0  0.1364716087690036 -0.1364716087690037 0.006  0.1110157646462879 -0.111015764646288 0.006  0.1364716087690036 -0.111015764646288 0.006  0.1237436867076458 -0.1237436867076458 0.006  0.1170615276254329 -0.1304258457898587 0  0.1110157646462879 -0.1364716087690037 0  0.1110157646462879 -0.1364716087690037 0.006  0.1529482566072435 -0.0633532422280407 0  0.1704095797717068 -0.07058595909974093 0  0.1616789181894751 -0.06696960066389081 0  0.1652952766253252 -0.05823893908165915 0  0.145049086604272 -0.06008129888131919 0  0.1685672199720468 -0.05033976907868765 0  0.1783087497746783 -0.07385790244646244 0  0.1783087497746783 -0.07385790244646244 0.006  0.145049086604272 -0.06008129888131919 0.006  0.1685672199720468 -0.05033976907868765 0.006  0.1616789181894751 -0.06696960066389081 0.006  0.158062559753625 -0.07570026224612246 0  0.1547906164069035 -0.08359943224909397 0  0.1547906164069035 -0.08359943224909397 0.006  0.1816821590571039 0.006682159107321884 0  0.1683178408904039 0.006682159054829612 0  0.1905884572626798 0.009000000009422473 0  0.1839999999697972 0.01558845728555746 0  0.1659999999713115 0.01558845725155659 0  0.1594115427217315 0.008999999982422135 0  0.1659999999999918 0 0.006  0.1839999999999864 0 0.006  0.1905884572626798 0.009000000009422473 0.006  0.1839999999697972 0.01558845728555746 0.006  0.1659999999713115 0.01558845725155659 0.006  0.1594115427217315 0.008999999982422135 0.006  0.1816821590822129 -0.006682159082212883 0  0.1683178409177871 -0.006682159082212875 0  0.1594115427217313 -0.008999999982421729 0  0.1659999999713265 -0.01558845725156525 0  0.1839999999697972 -0.01558845728555747 0  0.1905884572626846 -0.009000000009414219 0  0.1839999999697972 -0.01558845728555747 0.006  0.1905884572626846 -0.00
[...]
<PointData  Vectors="f_731"> 
<DataArray  type="Float64"  Name="f_731"  NumberOfComponents="3" format="ascii">-4.7111858873994495e-04 1.3652457817783879e-04 0.0000000000000000e+00  -3.8457949233304517e-04 1.1116363066169192e-04 0.0000000000000000e+00  -3.8988381844035536e-04 1.1580531458361622e-04 0.0000000000000000e+00  -3.8960714602442501e-04 1.1368429076588544e-04 0.0000000000000000e+00  -2.8619564842401516e-04 9.1430655071586694e-05 0.0000000000000000e+00  -2.7148613591313593e-04 8.8050030281144304e-05 0.0000000000000000e+00  -2.8559013317851521e-04 9.1468124656454483e-05 0.0000000000000000e+00  -3.2754217462546334e-04 1.0109702627486779e-04 0.0000000000000000e+00  -2.8018132769575313e-04 9.0081930280811064e-05 0.0000000000000000e+00  -2.6968265774711311e-04 8.7582284844994708e-05 0.0000000000000000e+00  -2.7965986272211724e-04 9.0087875904976228e-05 0.0000000000000000e+00  -3.8846194378328318e-04 1.1510926376243453e-04 0.0000000000000000e+00  -2.7783475309293483e-04 8.9652583769953684e-05 0.0000000000000000e+00  -2.7642014747781911e-04 8.9278971733935825e-05 0.0000000000000000e+00  -3.3822944847300266e-04 9.9842686960335944e-05 0.0000000000000000e+00  -3.3483996156846008e-04 9.8831615784637707e-05 0.0000000000000000e+00  -4.0989306412844614e-04 1.2094106297623749e-04 0.0000000000000000e+00  -3.3437557107360207e-04 1.0045603518773803e-04 0.0000000000000000e+00  -2.4808028061896548e-04 8.0478697533849594e-05 0.0000000000000000e+00  -2.2795814682401020e-04 7.4814942385819912e-05 0.0000000000000000e+00  -2.4868253583710598e-04 8.0586190273505912e-05 0.0000000000000000e+00  -2.4343568542384340e-04 7.9363458511929276e-05 0.0000000000000000e+00  -2.4293450201326035e-04 7.9267091463716780e-05 0.0000000000000000e+00  -2.2632523494452638e-04 7.4374790247150422e-05 0.0000000000000000e+00  -2.8474423444320467e-04 8.9179360344627219e-05 0.0000000000000000e+00  -3.4418259075413621e-04 1.0356741850501518e-04 0.0000000000000000e+00  -2.4924851810214770e-04 8.1597470950411886e-05 0.0000000000000000e+00  -2.4738091990189506e-04 8.1118894389011045e-05 0.0000000000000000e+00  -2.3614213157574501e-04 7.0972249775889259e-05 0.0000000000000000e+00  -2.3308180434873090e-04 6.9501634462473238e-05 0.0000000000000000e+00  -2.8551644139196913e-04 8.5324051774984783e-05 0.0000000000000000e+00  -2.2801660304378615e-04 7.0096521848378028e-05 0.0000000000000000e+00  -1.7308462045951834e-04 5.6989602772618527e-05 0.0000000000000000e+00  -1.5014091662738678e-04 4.9996634442977897e-05 0.0000000000000000e+00  -1.7342332539457660e-04 5.6972330453624042e-05 0.0000000000000000e+00  -1.6978503484819848e-04 5.6122428116656501e-05 0.0000000000000000e+00  -1.6949327884290940e-04 5.6122447200565569e-05 0.0000000000000000e+00  -1.4866812788389772e-04 4.9597781883865507e-05 0.0000000000000000e+00  -1.9854038037895601e-04 6.3068677857865149e-05 0.0000000000000000e+00  -2.4506972228066794e-04 7.4442715349728607e-05 0.0000000000000000e+00  -1.8271556618802874e-04 6.0688791283187024e-05 0.0000000000000000e+00  -1.8180713636235671e-04 6.0451040020134180e-05 0.0000000000000000e+00  -9.8100587884256601e-05 3.1078998865184578e-05 0.0000000000000000e+00  -9.7166148664092048e-05 3.0873645514623864e-05 0.0000000000000000e+00  -1.1876118794704944e-04 3.7726563854735280e-05 0.0000000000000000e+00  -8.7346937603255601e-05 2.8833668754960189e-05 0.0000000000000000e+00  -7.2100066546142353e-05 2.4837722617677135e-05 0.0000000000000000e+00  -4.9623291085991149e-05 1.7537128273228050e-05 0.0000000000000000e+00  -7.2287392618799987e-05 2.4891655813525023e-05 0.0000000000000000e+00  -7.0771137925389823e-05 2.4495772087139944e-05 0.0000000000000000e+00  -7.0615674320032891e-05 2.4450002036668792e-05 0.0000000000000000e+00  -4.9057413187555068e-05 1.7366266662762580e-05 0.0000000000000000e+00  -8.2672874660674208e-05 2.7636825279178639e-05 0.0000000000000000e+00  -1.0750198252791391e-04 3.4163405246828077e-05 0.0000000000000000e+00  -8.9215983388981363e-05 3.0712950723083938e-05 0.0000000000000000e+00  -8.8992823777325506e-05 3.0650231005073427e-05 0.0000000000000000e+00  5.4036735571548254e-05 -1.3517387383833344e-05 0.0000000000000000e+00  5.3644041226578253e-05 -1.3252949944202956e-05 0.0000000000000000e+00  6.5934401979843939e-05 -1.6106815221469660e-05 0.0000000000000000e+00  6.4068584768812200e-05 -1.6574789127218676e-05 0.0000000000000000e+00  3.9474414347122925e-05 -1.1252369207492124e-05 0.0000000000000000e+00  5.8324890149683441e-05 -1.7845423446352112e-05 0.0000000000000000e+00  3.9657302624503883e-05 -1.1256122196236418e-05 0.0000000000000000e+00  3.8809716590199302e-05 -1.1115133625670429e-05 0.0000000000000000e+00  3.8739348826667695e-05 -1.1121317802587600e-05 0.0000000000000000e+00  5.8208600992805607e-05 -1.7841119427013229e-05 0.0000000000000000e+00  4.5556221930112250e-05 -1.2288543705916461e-05 0.0000000000000000e+00  4.4202793088212698e-05 -1.1035602605027988e-05 0.0000000000000000e+00  1.7797894513419319e-05 -4.1514670080238412e-06 0.0000000000000000e+00  1.7332883030500110e-05 -4.0348999311603484e-06 0.0000000000000000e+00  1.9800212703809835e-04 -5.6173666219262441e-05 0.0000000000000000e+00  1.9601290412681882e-04 -5.5709787857142947e-05 0.0000000000000000e+00  2.4011649548387058e-04 -6.7672460952686216e-05 0.0000000000000000e+00  2.0505759457216838e-04 -5.9216866281945446e-05 0.0000000000000000e+00  1.4495911332255501e-04 -4.5876614840972554e-05 0.0000000000000000e+00  1.5712254878384784e-04 -5.0747997418450432e-05 0.0000000000000000e+00  1.4533255115572170e-04 -4.5933671046252991e-05 0.0000000000000000e+00  1.4225403318419467e-04 -4.5275537365703417e-05 0.0000000000000000e+00  1.4192989024802209e-04 -4.5223063736356942e-05 0.0000000000000000e+00  1.5634126303753899e-04 -5.0566540800112689e-05 0.0000000000000000e+00  1.6651870118815519e-04 -5.0542685218695855e-05 0.0000000000000000e+00  1.9038129781597001e-04 -5.5322766898127085e-05 0.0000000000000000e+00  1.2172887030403908e-04 -3.8592655483327846e-05 0.0000000000000000e+00  1.2068134465994268e-04 -3.8320275658418217e-05 0.0000000000000000e+00  3.1422794952306736e-04 -9.4570677298467783e-05 0.0000000000000000e+00  3.0394951478679574e-04 -8.4673780959447807e-05 0.0000000000000000e+00  3.7930481265811844e-04 -1.1200653004930918e-04 0.0000000000000000e+00  3.1938750011357764e-04 -9.6358967370039245e-05 0.0000000000000000e+00  2.2857743000943967e-04 -7.4575231597293789e-05 0.0000000000000000e+00  2.3182091062256584e-04 -7.6520259076480490e-05 0.0000000000000000e+00  2.2834362314179971e-04 -7.3627112540974090e-05 0.0000000000000000e+00  2.2360879561102078e-04 -7.2696132551123313e-05 0.0000000000000000e+00  2.2372248495888133e-04 -7.3376053212864586e-05 0.0000000000000000e+00  2.3010970854543818e-04 -7.6101944876422122e-05 0.0000000000000000e+00  2.6229978456617035e-04 -8.2076867797749477e-05 0.0000000000000000e+00  3.0445429787905894e-04 -9.1669032650174481e-05 0.0000000000000000e+00  2.0735049560237847e-04 -6.7746944105513235e-05 0.0000000000000000e+00  2.0609044438854685e-04 -6.7415930825876776e-05 0.0000000000000000e+00  3.7762511186437717e-04 -1.1554311752487308e-04 0.0000000000000000e+00  3.6899668936735689e-04 -1.0591207594454542e-04 0.0000000000000000e+00  4.5965758919537395e-04 -1.3898488512263934e-04 0.0000000000000000e+00  3.8189575165225778e-04 -1.1764461400794713e-04 0.0000000000000000e+00  2.7593834661813370e-04 -9.1483111522568380e-05 0.0000000000000000e+00  2.7079799844943454e-04 -9.0576525401743930e-05 0.0000000000000000e+00  2.7660522873786293e-04 -9.0775712863930657e-05 0.0000000000000000e+00  2.7089539980349267e-04 -8.9568209235468097e-05 0.0000000000000000e+00  2.7083234671896304e-04 -9.0184521475394959e-05 0.0000000000000000e+00  2.6864998648698393e-04 -9.0022878994726574e-05 0.0000000000000000e+00  3.1774650208835401e-04 -1.0132357704377381e-04 0.0000000000000000e+00  3.7349214803149647e-04 -1.1459111919631347e-04 0.0000000000000000e+00  2.6096582647558073e-04 -8.6824675559691813e-05 0.0000000000000000e+00  2.5953098027665196e-04 -8.6434096966756652e-05 0.0000000000000000e+00  3.8229384066775781e-04 -1.1506723394912769e-04 0.0000000000000000e+00  3.7982276144536909e-04 -1.1327877802555886e-04 0.0000000000000000e+00  4.6566454941106489e-04 -1.3843679820328933e-04 0.0000000000000000e+00  3.8332224900493068e-04 -1.1729112086174010e-04 0.0000000000000000e+00  2.8068117224477255e-04 -9.3337509208148796e-05 0.0000000000000000e+00  2.6772716025863020e-04 -9.0145724595128336e-05 0.0000000000000000e+00  2.8194115819389517e-04 -9.3437599256668153e-05 0.0000000000000000e+00  2.7601135160527050e-04 -9.2094028086677206e-05 0.0000000000000000e+00  2.7555650660422498e-04 -9.2118196324560194e-05 0.0000000000000000e+00  2.6548845427659538e-04 -8.9569916370872232e-05 0.0000000000000000e+00  3.2322125696614525e-04 -1.0313638038073208e-04 0.0000000000000000e+00  3.8631785373779363e-04 -1.1789866868854106e-04 0.0000000000000000e+00  2.7374999646435254e-04 -9.1747173040288195e-05 0.0000000000000000e+00  2.7155546969198570e-04 -9.1184221012867959e-05 0.0000000000000000e+00  3.3248598672397248e-04 -1.0554622067338422e-04 0.0000000000000000e+00  3.2545043905612584e-04 -9.5837063195005799e-05 0.0000000000000000e+00  4.0593549314024355e-04 -1.2652756203898298e-04 0.0000000000000000e+00  3.3071869676222558e-04 -1.0521603050330898e-04 0.0000000000000000e+00  2.4339963424347517e-04 -8.3206086433544976e-05 0.0000000000000000e+00  2.2398464944785529e-04 -7.7265332555123738e-05 0.0000000000000000e+00  2.4417715592764129e-04 -8.2491993108915057e-05 0.0000000000000000e+00  2.3915532876861908e-04 -8.1408360794687709e-05 0.0000000000000000e+00  2.3921473558659952e-04 -8.2088090870962872e-05 0.0000000000000000e+00  2.2243154624558071e-04 -7.6832207417473969e-05 0.0000000000000000e+00  2.8065073524232695e-04 -9.2233213350110808e-05 0.0000000000000000e+00  3.4024607794297699e-04 -1.0768937251067937e-04 0.0000000000000000e+00  2.4528757651913344e-04 -8.4016954261406578e-05 0.0000000000000000e+00  2.4343890350176286e-04 -8.3528085441528504e-05 0.0000000000000000e+00  2.3083307069196238e-04 -7.3329718092126264e-05 0.0000000000000000e+00  2.2782742749862412e-04 -7.1783285970868229e-05 0.0000000000000000e+00  2.7945545807528697e-04 -8.7860015327068420e-05 0.0000000000000000e+00  2.2322487484493500e-04 -7.2373060823613080e-05 0.0000000000000000e+00  1.6867499156971797e-04 -5.9012925779400172e-05 0.0000000000000000e+00  1.4558582351973675e-04 -5.1874177815220134e-05 0.0000000000000000e+00  1.6898716906542843e-04 -5.8972635768128746e-05 0.0000000000000000e+00  1.6544033044567504e-04 -5.8113983344095981e-05 0.0000000000000000e+00  1.6513495442543972e-04 -5.8125125981702856e-05 0.0000000000000000e+00  1.4444219110238990e-04 -5.1545973201241615e-05 0.0000000000000000e+00  1.9374733902041512e-04 -6.5195166856797058e-05 0.0000000000000000e+00  2.3919707416801173e-04 -7.6811928060616563e-05 0.0000000000000000e+00  1.7869475691332449e-04 -6.2813907560259092e-05 0.0000000000000000e+00  1.7748276678177205e-04 -6.2492983676176820e-05 0.0000000000000000e+00  9.2296881206082034e-05 -3.3360955127327360e-05 0.0000000000000000e+00  9.1674849633228874e-05 -3.2834244305090173e-05 0.0000000000000000e+00  1.1257897402247783e-04 -4.0133922096401747e-05 0.0000000000000000e+00  8.1903264856632725e-05 -3.0934489683458617e-05 0.0000000000000000e+00  6.7428894500763410e-05 -2.6704750431992460e-05 0.0000000000000000e+00  4.5200540556235476e-05 -1.9386808271935053e-05 0.0000000000000000e+00  6.7761172137493445e-05 -2.6750675874709742e-05 0.0000000000000000e+00  6.6309460418622991e-05 -2.6345633134914650e-05 0.0000000000000000e+00  6.6175137074994458e-05 -2.6339889798510182e-05 0.0000000000000000e+00  4.4651083209574481e-05 -1.9210455015549782e-05 0.0000000000000000e+00  7.7811346303859372e-05 -2.9646831120526304e-05 0.0000000000000000e+00  1.0200271834448729e-04 -3.6491693689196173e-05 0.0000000000000000e+00  8.4883110327391788e-05 -3.2615806065413851e-05 0.0000000000000000e+00  8.4590226060923332e-05 -3.2527073213852917e-05 0.0000000000000000e+00  -5.9195340243621070e-05 1.1230297340102812e-05 0.0000000000000000e+00  -5.8847964121977926e-05 1.1001330574735524e-05 0.0000000000000000e+00  -7.1941925846235149e-05 1.3657391945708475e-05 0.0000000000000000e+00  -6.9477414282139992e-05 1.4329012779751881e-05 0.0000000000000000e+00  -4.3875245013732457e-05 9.3086682017155197e-06 0.0000000000000000e+00  -6.2550034794230054e-05 1.5870551620617980e-05 0.0000000000000000e+00  -4.4079046759966758e-05 9.3142656311310973e-06 0.0000000000000000e+00  -4.3174013156890349e-05 9.1904845606199631e-06 0.0000000000000000e+00  -4.3101932193586625e-05 9.1959373860754565e-06 0.0000000000000000e+00  -6.2468334320023419e-05 1.5879359663268740e-05 0.0000000000000000e+00  -5.0318221154287715e-05 1.0227192235227305e-05 0.0000000000000000e+00  -4.9535113007408254e-05 8.8228970731161567e-06 0.0000000000000000e+00  -2.2160981875321318e-05 2.2662210268428463e-06 0.0000000000000000e+00  -2.1676196634870981e-05 2.1569834814959060e-06 0.0000000000000000e+00  -2.0244586506902725e-04 5.4349870188642278e-05 0.0000000000000000e+00  -2.0053282924531557e-04 5.2703919098738597e-05 0.0000000000000000e+00  -2.4459908649753349e-04 6.3534848032644208e-05 0.0000000000000000e+00  -2.1225948835213725e-04 5.6812265962942409e-05 0.0000000000000000e+00  -1.4869667225394555e-04 4.3607788468303009e-05 0.0000000000000000e+00  -1.6078770028959028e-04 4.8420538280740748e-05 0.0000000000000000e+00  -1.4930216299325163e-04 4.3557976111621344e-05 0.0000000000000000e+00  -1.4621979049829405e-04 4.2952727565925962e-05 0.0000000000000000e+00  -1.4601104193876399e-04 4.3036609250559676e-05 0.0000000000000000e+00  -1.5999754658731062e-04 4.8251930067606721e-05 0.0000000000000000e+00  -1.7074956233888229e-04 4.7910664532048171e-05 0.0000000000000000e+00  -1.9392548184259725e-04 5.1804014369309589e-05 0.0000000000000000e+00  -1.2590199916079077e-04 3.6406565794396323e-05 0.0000000000000000e+00  -1.2461650149775665e-04 3.6098640412432590e-05 0.0000000000000000e+00  -3.1640178263109492e-04 8.8674210205365902e-05 0.0000000000000000e+00  -3.1317707493456093e-04 8.7922838375155394e-05 0.0000000000000000e+00  -3.8334447571192285e-04 1.0742701126764549e-04 0.0000000000000000e+00  -3.2127318251796061e-04 9.2356761276750333e-05 0.0000000000000000e+00  -2.3212431086501808e-04 7.1721326622142608e-05 0.0000000000000000e+00  -2.3564046430240153e-04 7.4091439905388896e-05 0.0000000000000000e+00  -2.3269410278437300e-04 7.1835246839490694e-05 0.0000000000000000e+00  -2.2781139992908406e-04 7.0759153781993004e-05 0.0000000000000000e+00  -2.2731467117392446e-04 7.0655421052029594e-05 0.0000000000000000e+00  -2.3453337812565260e-04 7.3818759018896363e-05 0.0000000000000000e+00  -2.6637640633018150e-04 7.9396481630133952e-05 0.0000000000000000e+00  -3.1030385832437224e-04 8.8376045478930079e-05 0.0000000000000000e+00  -2.1114548889485113e-04 6.5395806272006604e-05 0.0000000000000000e+00  -2.0923866127565919e-04 6.4914722262887555e-05 0.0000000000000000e+00  -3.8209952338848083e-04 1.0978900041560322e-04 0.0000000000000000e+00  -3.7718639504969565e-04 1.0743695358059448e-04 0.0000000000000000e+00  -4.6217743012763211e-04 1.3195101744235398e-04 0.0000000000000000e+00  -3.8244184716236632e-04 1.1209578303009369e-04 0.0000000000000000e+00  -2.8003161002799972e-04 8.8421304149987503e-05 0.0000000000000000e+00  -2.7449145696231242e-04 8.7851815952479705e-05 0.0000000000000000e+00  -2.8058794429252086e-04 8.8383891762102825e-05 0.0000000000000000e+00  -2.7469040481905216e-04 8.7082753957095274e-05 0.0000000000000000e+00  -2.7421355466966945e-04 8.7091144309366266e-05 0.0000000000000000e+00  -2.7308769641470399e-04 8.7493381338148678e-05 0.0000000000000000e+00  -3.2125324663756819e-04 9.7729920385811455e-05 0.0000000000000000e+00  -3.7956520011910814e-04 1.1074984626016995e-04 0.0000000000000000e+00  -2.6443594164535949e-04 8.4016850957310208e-05 0.0000000000000000e+00  -2.6220910756733753e-04 8.3455542077600953e-05 0.0000000000000000e+00  -3.8201901575543541e-04 1.1229500007356674e-04 0.0000000000000000e+00  -3.8205656083217993e-04 1.1285164141216257e-04 0.0000000000000000e+00  -2.7974592014982572e-04 8.9941772359084903e-05 0.0000000000000000e+00  -2.7437334091728085e-04 8.8745881426816536e-05 0.0000000000000000e+00  -2.7431895109700184e-04 8.8754458137977951e-05 0.0000000000000000e+00  -2.7834871170879247e-04 8.9748502488631293e-05 0.0000000000000000e+00  -3.0463836392498437e-04 9.5709656372829516e-05 0.0000000000000000e+00  -3.0359716908527656e-04 9.5280260800021521e-05 0.0000000000000000e+00  -2.7639456346496659e-04 8.9149655731732500e-05 0.0000000000000000e+00  -2.7097773936578007e-04 8.7891235644186241e-05 0.0000000000000000e+00  -2.7053305620809519e-04 8.7819788222341408e-05 0.0000000000000000e+00  -2.7387983058251399e-04 8.8696119807712680e-05 0.0000000000000000e+00  -3.8554369852165276e-04 1.1268772008404322e-04 0.0000000000000000e+00  -3.8402022793065731e-04 1.1313405768845132e-04 0.0000000000000000e+00  -2.8155199500656965e-04 9.0566839629492086e-05 0.0000000000000000e+00  -2.7953001887243329e-04 9.0080330098746113e-05 0.0000000000000000e+00  -2.7877775760189606e-04 8.9869109369677773e-05 0.0000000000000000e+00  -2.8243821781040365e-04 9.0627593512336457e-05 0.0000000000000000e+00  -2.7583147778219335e-04 8.9131551873501742e-05 0.0000000000000000e+00  -2.7912887709959772e-04 8.9843206226561287e-05 0.0000000000000000e+00  -2.7704860889905494e-04 8.9507704920294373e-05 0.0000000000000000e+00  -2.7595623674170290e-04 8.9204008608026708e-05 0.0000000000000000e+00  -3.2952154692863844e-04 9.8535325012467370e-05 0.0000000000000000e+00  -3.2881201867260404e-04 9.8213799405750000e-05 0.0000000000000000e+00  -2.3755732583081147e-04 7.7525782292460331e-05 0.0000000000000000e+00  -2.3122849523612502e-04 7.5696253630664270e-05 0.0000000000000000e+00  -2.3183538430972657e-04 7.5905985089526118e-05 0.0000000000000000e+00  -2.3944297532705201e-04 7.8007046843748065e-05 0.0000000000000000e+00  -2.6392735877790892e-04 8.4070915081269168e-05 0.0000000000000000e+00  -2.6464637252031408e-04 8.4234750675005928e-05 0.0000000000000000e+00  -2.2890011324146745e-04 7.5161532796662930e-05 0.0000000000000000e+00  -2.3654446145945449e-04 7.7302153474972761e-05 0.0000000000000000e+00  -2.3371887890108505e-04 7.6614707758995937e-05 0.0000000000000000e+00  -2.2778054274538118e-04 7.4816231676545390e-05 0.0000000000000000e+00  -3.4126073923024605e-04 1.0130307386207339e-04 0.0000000000000000e+00  -3.3637876184456109e-04 1.0042893749738918e-04 0.0000000000000000e+00  -2.4880076037156387e-04 8.1117575395534160e-05 0.0000000000000000e+00  -2.5000592153422770e-04 8.1693244185265533e-05 0.0000000000000000e+00  -2.4747628477629190e-04 8.1066612418318815e-05 0.0000000000000000e+00  -2.4894633420249039e-04 8.1068915834976802e-05 0.0000000000000000e+00  -2.4600150661365162e-04 8.0664687079884875e-05 0.0000000000000000e+00  -2.4606999001609094e-04 8.0361540817817950e-05 0.0000000000000000e+00  -2.4485587405471314e-04 8.0174196330049449e-05 0.0000000000000000e+00  -2.4696974085741219e-04 8.0949929955502443e-05 0.0000000000000000e+00  -2.3004371247061246e-04 6.9523264625053930e-05 0.0000000000000000e+00  -2.2637806659648723e-04 6.9020298563343414e-05 0.0000000000000000e+00  -1.6087761053721055e-04 5.3286217254954462e-05 0.0000000000000000e+00  -1.5320256250645671e-04 5.0915383757765721e-05 0.0000000000000000e+00  -1.5288491924496281e-04 5.0888263944778677e-05 0.0000000000000000e+00  -1.6271877043882985e-04 5.3756985435731617e-05 0.0000000000000000e+00  -1.8402894461367833e-04 5.9415053379571013e-05 0.0000000000000000e+00  -1.8463122816218407e-04 5.9661919563087118e-05 0.0000000000000000e+00  -1.5196564297458712e-04 5.0638547474633084e-05 0.0000000000000000e+00  -1.6078154929730413e-04 5.3280255845920721e-05 0.0000000000000000e+00  -1.5824280201785863e-04 5.2646868759544830e-05 0.0000000000000000e+00  -1.5060456312980582e-04 5.0219355354609604e-05 0.0000000000000000e+00  -2.3861679